 vasp.5.4.4.18Apr17-6-g9f103f2a35 (build Mar 20 2018 18:07:30) complex           
 executed on             LinuxGNU date 2020.07.06  22:41:11
 running on    8 total cores
 distrk:  each k-point on    8 cores,    1 groups
 distr:  one band on NCORES_PER_BAND=   2 cores,    4 groups


--------------------------------------------------------------------------------------------------------


 INCAR:
 POTCAR:    PAW_PBE Bi 08Apr2002                  
 POTCAR:    PAW_PBE Te 08Apr2002                  
 POTCAR:    PAW_PBE Bi 08Apr2002                  
   VRHFIN =Bi:                                                                  
   LEXCH  = PE                                                                  
   EATOM  =   150.8133 eV,   11.0845 Ry                                         
                                                                                
   TITEL  = PAW_PBE Bi 08Apr2002                                                
   LULTRA =        F    use ultrasoft PP ?                                      
   IUNSCR =        1    unscreen: 0-lin 1-nonlin 2-no                           
   RPACOR =    2.200    partial core radius                                     
   POMASS =  208.980; ZVAL   =    5.000    mass and valenz                      
   RCORE  =    3.000    outmost cutoff radius                                   
   RWIGS  =    3.090; RWIGS  =    1.635    wigner-seitz radius (au A)           
   ENMAX  =  105.037; ENMIN  =   78.777 eV                                      
   ICORE  =        3    local potential                                         
   LCOR   =        T    correct aug charges                                     
   LPAW   =        T    paw PP                                                  
   EAUG   =  265.427                                                            
   DEXC   =    0.000                                                            
   RMAX   =    3.067    core radius for proj-oper                               
   RAUG   =    1.300    factor for augmentation sphere                          
   RDEP   =    3.012    radius for radial grids                                 
   RDEPT  =    2.604    core radius for aug-charge                              
                                                                                
   Atomic configuration                                                         
   17 entries                                                                   
     n  l   j            E        occ.                                          
     1  0  0.50    -90639.6582   2.0000                                         
     2  0  0.50    -16282.4667   2.0000                                         
     2  1  1.50    -13922.8287   6.0000                                         
     3  0  0.50     -3930.4763   2.0000                                         
     3  1  1.50     -3256.7013   6.0000                                         
     3  2  2.50     -2581.6169  10.0000                                         
     4  0  0.50      -902.2614   2.0000                                         
     4  1  1.50      -681.5915   6.0000                                         
     4  2  2.50      -429.8249  10.0000                                         
     4  3  3.50      -152.6004  14.0000                                         
     5  0  0.50      -157.7156   2.0000                                         
     5  1  1.50       -95.8054   6.0000                                         
     5  2  2.50       -27.0806  10.0000                                         
     6  0  0.50       -14.4732   2.0000                                         
     6  1  1.50        -4.5702   3.0000                                         
     6  2  2.50        -2.7212   0.0000                                         
     5  3  2.50        -2.7212   0.0000                                         
   Description                                                                  
     l       E           TYP  RCUT    TYP  RCUT                                 
     0    -14.4732299     23  3.000                                             
     0    -12.2452434     23  3.000                                             
     1     -4.5701666     23  3.000                                             
     1    -13.6058260     23  3.000                                             
     2     -2.7211652     23  3.000                                             
     3     -1.3605826      7  3.000                                             
  local pseudopotential read in
  partial core-charges read in
  partial kinetic energy density read in
  kinetic energy density of atom read in
  atomic valenz-charges read in
  non local Contribution for L=           0  read in
    real space projection operators read in
  non local Contribution for L=           0  read in
    real space projection operators read in
  non local Contribution for L=           1  read in
    real space projection operators read in
  non local Contribution for L=           1  read in
    real space projection operators read in
  non local Contribution for L=           2  read in
    real space projection operators read in
    PAW grid and wavefunctions read in

   number of l-projection  operators is LMAX  =           5
   number of lm-projection operators is LMMAX =          13

 POTCAR:    PAW_PBE Te 08Apr2002                  
   VRHFIN =Te: s2p4                                                             
   LEXCH  = PE                                                                  
   EATOM  =   223.2721 eV,   16.4100 Ry                                         
                                                                                
   TITEL  = PAW_PBE Te 08Apr2002                                                
   LULTRA =        F    use ultrasoft PP ?                                      
   IUNSCR =        1    unscreen: 0-lin 1-nonlin 2-no                           
   RPACOR =    2.200    partial core radius                                     
   POMASS =  127.600; ZVAL   =    6.000    mass and valenz                      
   RCORE  =    2.300    outmost cutoff radius                                   
   RWIGS  =    2.900; RWIGS  =    1.535    wigner-seitz radius (au A)           
   ENMAX  =  174.982; ENMIN  =  131.236 eV                                      
   ICORE  =        3    local potential                                         
   LCOR   =        T    correct aug charges                                     
   LPAW   =        T    paw PP                                                  
   EAUG   =  368.792                                                            
   DEXC   =    0.000                                                            
   RMAX   =    2.345    core radius for proj-oper                               
   RAUG   =    1.300    factor for augmentation sphere                          
   RDEP   =    2.397    radius for radial grids                                 
   RDEPT  =    2.174    core radius for aug-charge                              
                                                                                
   Atomic configuration                                                         
   13 entries                                                                   
     n  l   j            E        occ.                                          
     1  0  0.50    -31621.2075   2.0000                                         
     2  0  0.50     -4848.7941   2.0000                                         
     2  1  1.50     -4352.1960   6.0000                                         
     3  0  0.50      -964.9612   2.0000                                         
     3  1  1.50      -803.6179   6.0000                                         
     3  2  2.50      -559.8710  10.0000                                         
     4  0  0.50      -164.3522   2.0000                                         
     4  1  1.50      -114.3756   6.0000                                         
     4  2  2.50       -41.6483  10.0000                                         
     5  0  0.50       -15.1072   2.0000                                         
     5  1  0.50        -5.9526   4.0000                                         
     5  2  1.50        -5.4423   0.0000                                         
     4  3  2.50        -5.4423   0.0000                                         
   Description                                                                  
     l       E           TYP  RCUT    TYP  RCUT                                 
     0    -15.1072389     23  2.300                                             
     0    -16.4678215     23  2.300                                             
     1     -5.9526306     23  2.300                                             
     1     -2.4873968     23  2.300                                             
     2     -5.4423304     23  2.300                                             
     3     -1.3605826     23  2.300                                             
  local pseudopotential read in
  partial core-charges read in
  partial kinetic energy density read in
  atomic valenz-charges read in
  non local Contribution for L=           0  read in
    real space projection operators read in
  non local Contribution for L=           0  read in
    real space projection operators read in
  non local Contribution for L=           1  read in
    real space projection operators read in
  non local Contribution for L=           1  read in
    real space projection operators read in
  non local Contribution for L=           2  read in
    real space projection operators read in
    PAW grid and wavefunctions read in

   number of l-projection  operators is LMAX  =           5
   number of lm-projection operators is LMMAX =          13

 WARNING: PSMAXN for non-local potential too small
          PSMAXN should be >   12.549083372950625       NTYP=           1
  PAW_PBE Bi 08Apr2002                  :
 energy of atom  1       EATOM= -150.8133
 kinetic energy error for atom=    0.0000 (will be added to EATOM!!)
  PAW_PBE Te 08Apr2002                  :
 energy of atom  2       EATOM= -223.2721
 kinetic energy error for atom=    0.0004 (will be added to EATOM!!)


 POSCAR: Bi2 Te3                                 
  positions in direct lattice
  No initial velocities read in
 exchange correlation table for  LEXCH =        8
   RHO(1)=    0.500       N(1)  =     2000
   RHO(2)=  100.500       N(2)  =     4000



--------------------------------------------------------------------------------------------------------


 ion  position               nearest neighbor table
   1  0.400  0.400  0.400-   5 3.08   5 3.08   5 3.08   3 3.26   3 3.26   3 3.26
   2  0.600  0.600  0.600-   4 3.08   4 3.08   4 3.08   3 3.26   3 3.26   3 3.26
   3  0.000  0.000  0.000-   2 3.26   2 3.26   1 3.26   1 3.26   2 3.26   1 3.26
   4  0.210  0.210  0.210-   2 3.08   2 3.08   2 3.08
   5  0.790  0.790  0.790-   1 3.08   1 3.08   1 3.08


IMPORTANT INFORMATION: All symmetrisations will be switched off!
NOSYMM: (Re-)initialisation of all symmetry stuff for point group C_1.



 KPOINTS: EMC 1.51py                              
  k-points in reciprocal lattice
Space group operators:
 irot       det(A)        alpha          n_x          n_y          n_z        tau_x        tau_y        tau_z
    1     1.000000     0.000000     1.000000     0.000000     0.000000     0.000000     0.000000     0.000000


--------------------------------------------------------------------------------------------------------




 Dimension of arrays:
   k-points           NKPTS =     61   k-points in BZ     NKDIM =     61   number of bands    NBANDS=     88
   number of dos      NEDOS =    301   number of ions     NIONS =      5
   non local maximal  LDIM  =      5   non local SUM 2l+1 LMDIM =     13
   total plane-waves  NPLWV = 592704
   max r-space proj   IRMAX =      1   max aug-charges    IRDMAX= ******
   dimension x,y,z NGX =    84 NGY =   84 NGZ =   84
   dimension x,y,z NGXF=   168 NGYF=  168 NGZF=  168
   support grid    NGXF=   336 NGYF=  336 NGZF=  336
   ions per type =               2   3
   NGX,Y,Z   is equivalent  to a cutoff of  13.35, 13.35, 13.35 a.u.
   NGXF,Y,Z  is equivalent  to a cutoff of  26.70, 26.70, 26.70 a.u.

 SYSTEM =  BiTe                                    
 POSCAR =  Bi2 Te3                                 

 Startparameter for this run:
   NWRITE =      2    write-flag & timer
   PREC   = accura    normal or accurate (medium, high low for compatibility)
   ISTART =      0    job   : 0-new  1-cont  2-samecut
   ICHARG =     11    charge: 1-file 2-atom 10-const
   ISPIN  =      1    spin polarized calculation?
   LNONCOLLINEAR =      T non collinear calculations
   LSORBIT =      T    spin-orbit coupling
   INIWAV =      1    electr: 0-lowe 1-rand  2-diag
   LASPH  =      F    aspherical Exc in radial PAW
   METAGGA=      F    non-selfconsistent MetaGGA calc.

 Electronic Relaxation 1
   ENCUT  =  600.0 eV  44.10 Ry    6.64 a.u.  20.89 20.89 20.89*2*pi/ulx,y,z
   ENINI  =  600.0     initial cutoff
   ENAUG  =  368.8 eV  augmentation charge cutoff
   NELM   =     60;   NELMIN=  2; NELMDL=  0     # of ELM steps 
   EDIFF  = 0.1E-06   stopping-criterion for ELM
   LREAL  =      F    real-space projection
   NLSPLINE    = F    spline interpolate recip. space projectors
   LCOMPAT=      F    compatible to vasp.4.4
   GGA_COMPAT  = F    GGA compatible to vasp.4.4-vasp.4.6
   LMAXPAW     = -100 max onsite density
   LMAXMIX     =    4 max onsite mixed and CHGCAR
   VOSKOWN=      0    Vosko Wilk Nusair interpolation
   ROPT   =    0.00000   0.00000
 Ionic relaxation
   EDIFFG = -.1E-02   stopping-criterion for IOM
   NSW    =      0    number of steps for IOM
   NBLOCK =      1;   KBLOCK =      1    inner block; outer block 
   IBRION =     -1    ionic relax: 0-MD 1-quasi-New 2-CG
   NFREE  =      0    steps in history (QN), initial steepest desc. (CG)
   ISIF   =      2    stress and relaxation
   IWAVPR =     10    prediction:  0-non 1-charg 2-wave 3-comb
   ISYM   =     -1    0-nonsym 1-usesym 2-fastsym
   LCORR  =      T    Harris-Foulkes like correction to forces

   POTIM  = 0.5000    time-step for ionic-motion
   TEIN   =    0.0    initial temperature
   TEBEG  =    0.0;   TEEND  =   0.0 temperature during run
   SMASS  =  -3.00    Nose mass-parameter (am)
   estimated Nose-frequenzy (Omega)   =  0.10E-29 period in steps =****** mass=  -0.250E-26a.u.
   SCALEE = 1.0000    scale energy and forces
   NPACO  =    256;   APACO  = 16.0  distance and # of slots for P.C.
   PSTRESS=    0.0 pullay stress

  Mass of Ions in am
   POMASS = 208.98127.60
  Ionic Valenz
   ZVAL   =   5.00  6.00
  Atomic Wigner-Seitz radii
   RWIGS  =  -1.00 -1.00
  virtual crystal weights 
   VCA    =   1.00  1.00
   NELECT =      28.0000    total number of electrons
   NUPDOWN=      -1.0000    fix difference up-down

 DOS related values:
   EMIN   =  10.00;   EMAX   =-10.00  energy-range for DOS
   EFERMI =   0.00
   ISMEAR =     0;   SIGMA  =   0.01  broadening in eV -4-tet -1-fermi 0-gaus

 Electronic relaxation 2 (details)
   IALGO  =     58    algorithm
   LDIAG  =      T    sub-space diagonalisation (order eigenvalues)
   LSUBROT=      F    optimize rotation matrix (better conditioning)
   TURBO    =      0    0=normal 1=particle mesh
   IRESTART =      0    0=no restart 2=restart with 2 vectors
   NREBOOT  =      0    no. of reboots
   NMIN     =      0    reboot dimension
   EREF     =   0.00    reference energy to select bands
   IMIX   =      4    mixing-type and parameters
     AMIX     =   0.40;   BMIX     =  1.00
     AMIX_MAG =   1.60;   BMIX_MAG =  1.00
     AMIN     =   0.10
     WC   =   100.;   INIMIX=   1;  MIXPRE=   1;  MAXMIX= -45

 Intra band minimization:
   WEIMIN = 0.0000     energy-eigenvalue tresh-hold
   EBREAK =  0.28E-09  absolut break condition
   DEPER  =   0.30     relativ break condition  

   TIME   =   0.40     timestep for ELM

  volume/ion in A,a.u.               =      34.53       232.99
  Fermi-wavevector in a.u.,A,eV,Ry     =   0.892805  1.687157 10.845211  0.797101
  Thomas-Fermi vector in A             =   2.014801

 Write flags
   LWAVE        =      F    write WAVECAR
   LDOWNSAMPLE  =      F    k-point downsampling of WAVECAR
   LCHARG       =      F    write CHGCAR
   LVTOT        =      F    write LOCPOT, total local potential
   LVHAR        =      F    write LOCPOT, Hartree potential only
   LELF         =      F    write electronic localiz. function (ELF)
   LORBIT       =      0    0 simple, 1 ext, 2 COOP (PROOUT), +10 PAW based schemes


 Dipole corrections
   LMONO  =      F    monopole corrections only (constant potential shift)
   LDIPOL =      F    correct potential (dipole corrections)
   IDIPOL =      0    1-x, 2-y, 3-z, 4-all directions 
   EPSILON=  1.0000000 bulk dielectric constant

 Exchange correlation treatment:
   GGA     =    --    GGA type
   LEXCH   =     8    internal setting for exchange type
   VOSKOWN=      0    Vosko Wilk Nusair interpolation
   LHFCALC =     F    Hartree Fock is set to
   LHFONE  =     F    Hartree Fock one center treatment
   AEXX    =    0.0000 exact exchange contribution

 Linear response parameters
   LEPSILON=     F    determine dielectric tensor
   LRPA    =     F    only Hartree local field effects (RPA)
   LNABLA  =     F    use nabla operator in PAW spheres
   LVEL    =     F    velocity operator in full k-point grid
   LINTERFAST=   F  fast interpolation
   KINTER  =     0    interpolate to denser k-point grid
   CSHIFT  =0.1000    complex shift for real part using Kramers Kronig
   OMEGAMAX=  -1.0    maximum frequency
   DEG_THRESHOLD= 0.2000000E-02 threshold for treating states as degnerate
   RTIME   =   -0.100 relaxation time in fs
  (WPLASMAI=    0.000 imaginary part of plasma frequency in eV, 0.658/RTIME)
   DFIELD  = 0.0000000 0.0000000 0.0000000 field for delta impulse in time

 Orbital magnetization related:
   ORBITALMAG=     F  switch on orbital magnetization
   LCHIMAG   =     F  perturbation theory with respect to B field
   DQ        =  0.001000  dq finite difference perturbation B field
   LLRAUG    =     F  two centre corrections for induced B field



--------------------------------------------------------------------------------------------------------


 Static calculation
 charge density and potential remain constant during run
 non collinear spin polarized calculation
 Conjugate gradient for all bands (Freysoldt, et al. PRB 79, 241103 (2009))
 preconditioned conjugated gradient   charged. constant during bandupdate  
 perform sub-space diagonalisation
    before iterative eigenvector-optimisation
 no mixing
 using additional bands           74
 reciprocal scheme for non local part
 use partial core corrections
 calculate Harris-corrections to forces   (improved forces if not selfconsistent)
 use gradient corrections 
 WARNING: stress and forces are not correct
  (second derivative of E(xc) not defined)
 use of overlap-Matrix (Vanderbilt PP)
 Gauss-broadening in eV      SIGMA  =   0.01


--------------------------------------------------------------------------------------------------------


  energy-cutoff  :      600.00
  volume of cell :      172.63
      direct lattice vectors                 reciprocal lattice vectors
    10.222282710 -2.216677340  0.000000000     0.048912754 -0.225562824 -0.125089241
    10.222282710  2.216677340  0.000000000     0.048912754  0.225562824 -0.125089241
     9.741601570  0.000000000  3.809189020    -0.000000000  0.000000000  0.262523071

  length of vectors
    10.459862439 10.459862439 10.459862434     0.262523071  0.262523071  0.262523071



 k-points in units of 2pi/SCALE and weight: EMC 1.51py                              
   0.04096575 -0.04231085 -0.01945244       0.016
   0.03495057 -0.04231085 -0.01945244       0.016
   0.03795816 -0.04231085 -0.01945244       0.016
   0.04397334 -0.04231085 -0.01945244       0.016
   0.04698094 -0.04231085 -0.01945244       0.016
   0.04096575 -0.04832603 -0.01945244       0.016
   0.04096575 -0.04531844 -0.01945244       0.016
   0.04096575 -0.03930326 -0.01945244       0.016
   0.04096575 -0.03629566 -0.01945244       0.016
   0.04096575 -0.04231085 -0.02546763       0.016
   0.04096575 -0.04231085 -0.02246004       0.016
   0.04096575 -0.04231085 -0.01644485       0.016
   0.04096575 -0.04231085 -0.01343726       0.016
   0.03495057 -0.04832603 -0.01945244       0.016
   0.03795816 -0.04832603 -0.01945244       0.016
   0.04397334 -0.04832603 -0.01945244       0.016
   0.04698094 -0.04832603 -0.01945244       0.016
   0.03495057 -0.04531844 -0.01945244       0.016
   0.03795816 -0.04531844 -0.01945244       0.016
   0.04397334 -0.04531844 -0.01945244       0.016
   0.04698094 -0.04531844 -0.01945244       0.016
   0.03495057 -0.03930326 -0.01945244       0.016
   0.03795816 -0.03930326 -0.01945244       0.016
   0.04397334 -0.03930326 -0.01945244       0.016
   0.04698094 -0.03930326 -0.01945244       0.016
   0.03495057 -0.03629566 -0.01945244       0.016
   0.03795816 -0.03629566 -0.01945244       0.016
   0.04397334 -0.03629566 -0.01945244       0.016
   0.04698094 -0.03629566 -0.01945244       0.016
   0.03495057 -0.04231085 -0.02546763       0.016
   0.03795816 -0.04231085 -0.02546763       0.016
   0.04397334 -0.04231085 -0.02546763       0.016
   0.04698094 -0.04231085 -0.02546763       0.016
   0.03495057 -0.04231085 -0.02246004       0.016
   0.03795816 -0.04231085 -0.02246004       0.016
   0.04397334 -0.04231085 -0.02246004       0.016
   0.04698094 -0.04231085 -0.02246004       0.016
   0.03495057 -0.04231085 -0.01644485       0.016
   0.03795816 -0.04231085 -0.01644485       0.016
   0.04397334 -0.04231085 -0.01644485       0.016
   0.04698094 -0.04231085 -0.01644485       0.016
   0.03495057 -0.04231085 -0.01343726       0.016
   0.03795816 -0.04231085 -0.01343726       0.016
   0.04397334 -0.04231085 -0.01343726       0.016
   0.04698094 -0.04231085 -0.01343726       0.016
   0.04096575 -0.04832603 -0.02546763       0.016
   0.04096575 -0.04531844 -0.02546763       0.016
   0.04096575 -0.03930326 -0.02546763       0.016
   0.04096575 -0.03629566 -0.02546763       0.016
   0.04096575 -0.04832603 -0.02246004       0.016
   0.04096575 -0.04531844 -0.02246004       0.016
   0.04096575 -0.03930326 -0.02246004       0.016
   0.04096575 -0.03629566 -0.02246004       0.016
   0.04096575 -0.04832603 -0.01644485       0.016
   0.04096575 -0.04531844 -0.01644485       0.016
   0.04096575 -0.03930326 -0.01644485       0.016
   0.04096575 -0.03629566 -0.01644485       0.016
   0.04096575 -0.04832603 -0.01343726       0.016
   0.04096575 -0.04531844 -0.01343726       0.016
   0.04096575 -0.03930326 -0.01343726       0.016
   0.04096575 -0.03629566 -0.01343726       0.016

 k-points in reciprocal lattice and weights: EMC 1.51py                              
   0.51255300  0.32497400  0.32497400       0.016
   0.45106408  0.26348508  0.26637646       0.016
   0.48180854  0.29422954  0.29567523       0.016
   0.54329746  0.35571846  0.35427277       0.016
   0.57404192  0.38646292  0.38357154       0.016
   0.52588672  0.31164028  0.32497400       0.016
   0.51921986  0.31830714  0.32497400       0.016
   0.50588614  0.33164086  0.32497400       0.016
   0.49921928  0.33830772  0.32497400       0.016
   0.51255300  0.32497400  0.30206102       0.016
   0.51255300  0.32497400  0.31351751       0.016
   0.51255300  0.32497400  0.33643049       0.016
   0.51255300  0.32497400  0.34788698       0.016
   0.46439780  0.25015135  0.26637646       0.016
   0.49514226  0.28089581  0.29567523       0.016
   0.55663119  0.34238474  0.35427277       0.016
   0.58737565  0.37312920  0.38357154       0.016
   0.45773094  0.25681822  0.26637646       0.016
   0.48847540  0.28756268  0.29567523       0.016
   0.54996432  0.34905160  0.35427277       0.016
   0.58070878  0.37979606  0.38357154       0.016
   0.44439722  0.27015194  0.26637646       0.016
   0.47514168  0.30089640  0.29567523       0.016
   0.53663060  0.36238532  0.35427277       0.016
   0.56737506  0.39312978  0.38357154       0.016
   0.43773035  0.27681880  0.26637646       0.016
   0.46847481  0.30756326  0.29567523       0.016
   0.52996374  0.36905219  0.35427277       0.016
   0.56070820  0.39979665  0.38357154       0.016
   0.45106408  0.26348508  0.24346349       0.016
   0.48180854  0.29422954  0.27276225       0.016
   0.54329746  0.35571846  0.33135979       0.016
   0.57404192  0.38646292  0.36065856       0.016
   0.45106408  0.26348508  0.25491998       0.016
   0.48180854  0.29422954  0.28421874       0.016
   0.54329746  0.35571846  0.34281628       0.016
   0.57404192  0.38646292  0.37211505       0.016
   0.45106408  0.26348508  0.27783295       0.016
   0.48180854  0.29422954  0.30713172       0.016
   0.54329746  0.35571846  0.36572926       0.016
   0.57404192  0.38646292  0.39502802       0.016
   0.45106408  0.26348508  0.28928944       0.016
   0.48180854  0.29422954  0.31858821       0.016
   0.54329746  0.35571846  0.37718575       0.016
   0.57404192  0.38646292  0.40648451       0.016
   0.52588672  0.31164028  0.30206102       0.016
   0.51921986  0.31830714  0.30206102       0.016
   0.50588614  0.33164086  0.30206102       0.016
   0.49921928  0.33830772  0.30206102       0.016
   0.52588672  0.31164028  0.31351751       0.016
   0.51921986  0.31830714  0.31351751       0.016
   0.50588614  0.33164086  0.31351751       0.016
   0.49921928  0.33830772  0.31351751       0.016
   0.52588672  0.31164028  0.33643049       0.016
   0.51921986  0.31830714  0.33643049       0.016
   0.50588614  0.33164086  0.33643049       0.016
   0.49921928  0.33830772  0.33643049       0.016
   0.52588672  0.31164028  0.34788698       0.016
   0.51921986  0.31830714  0.34788698       0.016
   0.50588614  0.33164086  0.34788698       0.016
   0.49921928  0.33830772  0.34788698       0.016

 position of ions in fractional coordinates (direct lattice) 
   0.39979833  0.39979833  0.39979833
   0.60020167  0.60020167  0.60020167
   0.00000000  0.00000000  0.00000000
   0.21048582  0.21048582  0.21048582
   0.78951418  0.78951418  0.78951418

 position of ions in cartesian coordinates  (Angst):
  12.06837915  0.00000000  1.52290741
  18.11778784  0.00000000  2.28628161
   0.00000000  0.00000000  0.00000000
   6.35376011  0.00000000  0.80178027
  23.83240688  0.00000000  3.00740875

 Euler angles ALPHA=     0.0000000  BETA=     0.0000000

 transformation matrix from SAXIS to cartesian coordinates
 ---------------------------------------------------------
     1.0000000 m_x    -0.0000000 m_y     0.0000000 m_z
     0.0000000 m_x     1.0000000 m_y     0.0000000 m_z
    -0.0000000 m_x     0.0000000 m_y     1.0000000 m_z

 transformation matrix from cartesian coordinates to SAXIS
 ---------------------------------------------------------
     1.0000000 m_x     0.0000000 m_y    -0.0000000 m_z
    -0.0000000 m_x     1.0000000 m_y     0.0000000 m_z
     0.0000000 m_x     0.0000000 m_y     1.0000000 m_z




--------------------------------------------------------------------------------------------------------


 k-point  1 :   0.5126 0.3250 0.3250  plane waves:   11494
 k-point  2 :   0.4511 0.2635 0.2664  plane waves:   11488
 k-point  3 :   0.4818 0.2942 0.2957  plane waves:   11488
 k-point  4 :   0.5433 0.3557 0.3543  plane waves:   11500
 k-point  5 :   0.5740 0.3865 0.3836  plane waves:   11506
 k-point  6 :   0.5259 0.3116 0.3250  plane waves:   11504
 k-point  7 :   0.5192 0.3183 0.3250  plane waves:   11500
 k-point  8 :   0.5059 0.3316 0.3250  plane waves:   11474
 k-point  9 :   0.4992 0.3383 0.3250  plane waves:   11470
 k-point 10 :   0.5126 0.3250 0.3021  plane waves:   11508
 k-point 11 :   0.5126 0.3250 0.3135  plane waves:   11496
 k-point 12 :   0.5126 0.3250 0.3364  plane waves:   11478
 k-point 13 :   0.5126 0.3250 0.3479  plane waves:   11484
 k-point 14 :   0.4644 0.2502 0.2664  plane waves:   11492
 k-point 15 :   0.4951 0.2809 0.2957  plane waves:   11496
 k-point 16 :   0.5566 0.3424 0.3543  plane waves:   11512
 k-point 17 :   0.5874 0.3731 0.3836  plane waves:   11512
 k-point 18 :   0.4577 0.2568 0.2664  plane waves:   11486
 k-point 19 :   0.4885 0.2876 0.2957  plane waves:   11486
 k-point 20 :   0.5500 0.3491 0.3543  plane waves:   11516
 k-point 21 :   0.5807 0.3798 0.3836  plane waves:   11518
 k-point 22 :   0.4444 0.2702 0.2664  plane waves:   11484
 k-point 23 :   0.4751 0.3009 0.2957  plane waves:   11484
 k-point 24 :   0.5366 0.3624 0.3543  plane waves:   11478
 k-point 25 :   0.5674 0.3931 0.3836  plane waves:   11490
 k-point 26 :   0.4377 0.2768 0.2664  plane waves:   11466
 k-point 27 :   0.4685 0.3076 0.2957  plane waves:   11466
 k-point 28 :   0.5300 0.3691 0.3543  plane waves:   11474
 k-point 29 :   0.5607 0.3998 0.3836  plane waves:   11482
 k-point 30 :   0.4511 0.2635 0.2435  plane waves:   11498
 k-point 31 :   0.4818 0.2942 0.2728  plane waves:   11492
 k-point 32 :   0.5433 0.3557 0.3314  plane waves:   11496
 k-point 33 :   0.5740 0.3865 0.3607  plane waves:   11500
 k-point 34 :   0.4511 0.2635 0.2549  plane waves:   11486
 k-point 35 :   0.4818 0.2942 0.2842  plane waves:   11486
 k-point 36 :   0.5433 0.3557 0.3428  plane waves:   11504
 k-point 37 :   0.5740 0.3865 0.3721  plane waves:   11504
 k-point 38 :   0.4511 0.2635 0.2778  plane waves:   11482
 k-point 39 :   0.4818 0.2942 0.3071  plane waves:   11480
 k-point 40 :   0.5433 0.3557 0.3657  plane waves:   11492
 k-point 41 :   0.5740 0.3865 0.3950  plane waves:   11492
 k-point 42 :   0.4511 0.2635 0.2893  plane waves:   11478
 k-point 43 :   0.4818 0.2942 0.3186  plane waves:   11480
 k-point 44 :   0.5433 0.3557 0.3772  plane waves:   11486
 k-point 45 :   0.5740 0.3865 0.4065  plane waves:   11490
 k-point 46 :   0.5259 0.3116 0.3021  plane waves:   11508
 k-point 47 :   0.5192 0.3183 0.3021  plane waves:   11504
 k-point 48 :   0.5059 0.3316 0.3021  plane waves:   11494
 k-point 49 :   0.4992 0.3383 0.3021  plane waves:   11482
 k-point 50 :   0.5259 0.3116 0.3135  plane waves:   11508
 k-point 51 :   0.5192 0.3183 0.3135  plane waves:   11496
 k-point 52 :   0.5059 0.3316 0.3135  plane waves:   11486
 k-point 53 :   0.4992 0.3383 0.3135  plane waves:   11486
 k-point 54 :   0.5259 0.3116 0.3364  plane waves:   11510
 k-point 55 :   0.5192 0.3183 0.3364  plane waves:   11500
 k-point 56 :   0.5059 0.3316 0.3364  plane waves:   11466
 k-point 57 :   0.4992 0.3383 0.3364  plane waves:   11454
 k-point 58 :   0.5259 0.3116 0.3479  plane waves:   11508
 k-point 59 :   0.5192 0.3183 0.3479  plane waves:   11496
 k-point 60 :   0.5059 0.3316 0.3479  plane waves:   11470
 k-point 61 :   0.4992 0.3383 0.3479  plane waves:   11448

 maximum and minimum number of plane-waves per node :      5770     5722

 maximum number of plane-waves:     11518
 maximum index in each direction: 
   IXMAX=   20   IYMAX=   20   IZMAX=   20
   IXMIN=  -21   IYMIN=  -21   IZMIN=  -21


 parallel 3D FFT for wavefunctions:
    minimum data exchange during FFTs selected (reduces bandwidth)
 parallel 3D FFT for charge:
    minimum data exchange during FFTs selected (reduces bandwidth)


 total amount of memory used by VASP MPI-rank0   804901. kBytes
=======================================================================

   base      :      30000. kBytes
   nonl-proj :      36720. kBytes
   fftplans  :     182230. kBytes
   grid      :     180182. kBytes
   one-center:         97. kBytes
   wavefun   :     375672. kBytes

     INWAV:  cpu time    0.0010: real time    0.0002
 initial charge density was supplied:
 number of electron      28.0000001 magnetization      -0.0000580     -0.0000594     -0.0000590
 keeping initial charge density in first step


--------------------------------------------------------------------------------------------------------


 Maximum index for augmentation-charges       317341 (set IRDMAX)


--------------------------------------------------------------------------------------------------------


 First call to EWALD:  gamma=   0.318
 Maximum number of real-space cells 4x 4x 4
 Maximum number of reciprocal cells 5x 5x 5

    FEWALD:  cpu time    0.0012: real time    0.0012


--------------------------------------- Iteration      1(   1)  ---------------------------------------


    POTLOK:  cpu time    7.7952: real time    7.8283
    SETDIJ:  cpu time    8.8484: real time    8.8516
    TRIAL :  cpu time  869.0510: real time  881.0164
    CORREC:  cpu time    0.0022: real time    0.0022
    --------------------------------------------
      LOOP:  cpu time  885.8170: real time  897.8194

 eigenvalue-minimisations  : 10736
 total energy-change (2. order) : 0.1287519E+03  (-0.1442353E+04)
 number of electron      28.0000001 magnetization      -0.0000580     -0.0000594     -0.0000590
 augmentation part       28.0000001 magnetization      -0.0000580     -0.0000594     -0.0000590

 Free energy of the ion-electron system (eV)
  ---------------------------------------------------
  alpha Z        PSCENC =         5.99831677
  Ewald energy   TEWEN  =      -983.58522533
  -Hartree energ DENC   =       -59.98562904
  -exchange      EXHF   =         0.00000000
  -V(xc)+E(xc)   XCENC  =      -303.85049003
  PAW double counting   =      1910.19755357    -1561.17602897
  entropy T*S    EENTRO =        -0.00024812
  eigenvalues    EBANDS =       149.71211940
  atomic energy  EATOM  =       971.44149227
  ---------------------------------------------------
  free energy    TOTEN  =       128.75186053 eV

  energy without entropy =      128.75210865  energy(sigma->0) =      128.75198459


--------------------------------------------------------------------------------------------------------




--------------------------------------- Iteration      1(   2)  ---------------------------------------


    TRIAL :  cpu time  715.0980: real time  722.9612
    CORREC:  cpu time    0.0019: real time    0.0019
    --------------------------------------------
      LOOP:  cpu time  715.1006: real time  722.9638

 eigenvalue-minimisations  : 13304
 total energy-change (2. order) :-0.1275800E+03  (-0.1174382E+03)
 number of electron      28.0000001 magnetization      -0.0000580     -0.0000594     -0.0000590
 augmentation part       28.0000001 magnetization      -0.0000580     -0.0000594     -0.0000590

 Free energy of the ion-electron system (eV)
  ---------------------------------------------------
  alpha Z        PSCENC =         5.99831677
  Ewald energy   TEWEN  =      -983.58522533
  -Hartree energ DENC   =       -59.98562904
  -exchange      EXHF   =         0.00000000
  -V(xc)+E(xc)   XCENC  =      -303.85049003
  PAW double counting   =      1910.19755357    -1561.17602897
  entropy T*S    EENTRO =        -0.00000083
  eigenvalues    EBANDS =        22.13190945
  atomic energy  EATOM  =       971.44149227
  ---------------------------------------------------
  free energy    TOTEN  =         1.17189787 eV

  energy without entropy =        1.17189870  energy(sigma->0) =        1.17189828


--------------------------------------------------------------------------------------------------------




--------------------------------------- Iteration      1(   3)  ---------------------------------------


    TRIAL :  cpu time  534.0623: real time  537.2770
    CORREC:  cpu time    0.0007: real time    0.0007
    --------------------------------------------
      LOOP:  cpu time  534.0636: real time  537.2784

 eigenvalue-minimisations  : 12688
 total energy-change (2. order) :-0.1149627E+02  (-0.1123005E+02)
 number of electron      28.0000001 magnetization      -0.0000580     -0.0000594     -0.0000590
 augmentation part       28.0000001 magnetization      -0.0000580     -0.0000594     -0.0000590

 Free energy of the ion-electron system (eV)
  ---------------------------------------------------
  alpha Z        PSCENC =         5.99831677
  Ewald energy   TEWEN  =      -983.58522533
  -Hartree energ DENC   =       -59.98562904
  -exchange      EXHF   =         0.00000000
  -V(xc)+E(xc)   XCENC  =      -303.85049003
  PAW double counting   =      1910.19755357    -1561.17602897
  entropy T*S    EENTRO =        -0.00000000
  eigenvalues    EBANDS =        10.63563934
  atomic energy  EATOM  =       971.44149227
  ---------------------------------------------------
  free energy    TOTEN  =       -10.32437141 eV

  energy without entropy =      -10.32437141  energy(sigma->0) =      -10.32437141


--------------------------------------------------------------------------------------------------------




--------------------------------------- Iteration      1(   4)  ---------------------------------------


    TRIAL :  cpu time  603.3688: real time  616.1929
    CORREC:  cpu time    0.0007: real time    0.0007
    --------------------------------------------
      LOOP:  cpu time  603.3700: real time  616.1941

 eigenvalue-minimisations  : 12792
 total energy-change (2. order) :-0.3149721E+00  (-0.3147168E+00)
 number of electron      28.0000001 magnetization      -0.0000580     -0.0000594     -0.0000590
 augmentation part       28.0000001 magnetization      -0.0000580     -0.0000594     -0.0000590

 Free energy of the ion-electron system (eV)
  ---------------------------------------------------
  alpha Z        PSCENC =         5.99831677
  Ewald energy   TEWEN  =      -983.58522533
  -Hartree energ DENC   =       -59.98562904
  -exchange      EXHF   =         0.00000000
  -V(xc)+E(xc)   XCENC  =      -303.85049003
  PAW double counting   =      1910.19755357    -1561.17602897
  entropy T*S    EENTRO =        -0.00000000
  eigenvalues    EBANDS =        10.32066724
  atomic energy  EATOM  =       971.44149227
  ---------------------------------------------------
  free energy    TOTEN  =       -10.63934351 eV

  energy without entropy =      -10.63934351  energy(sigma->0) =      -10.63934351


--------------------------------------------------------------------------------------------------------




--------------------------------------- Iteration      1(   5)  ---------------------------------------


    TRIAL :  cpu time  814.4253: real time  828.2184
    CORREC:  cpu time    0.0246: real time    0.0246
    --------------------------------------------
      LOOP:  cpu time  814.4504: real time  828.2436

 eigenvalue-minimisations  : 12408
 total energy-change (2. order) :-0.5582174E-02  (-0.5581920E-02)
 number of electron      28.0000001 magnetization      -0.0000580     -0.0000594     -0.0000590
 augmentation part       28.0000001 magnetization      -0.0000580     -0.0000594     -0.0000590

 Free energy of the ion-electron system (eV)
  ---------------------------------------------------
  alpha Z        PSCENC =         5.99831677
  Ewald energy   TEWEN  =      -983.58522533
  -Hartree energ DENC   =       -59.98562904
  -exchange      EXHF   =         0.00000000
  -V(xc)+E(xc)   XCENC  =      -303.85049003
  PAW double counting   =      1910.19755357    -1561.17602897
  entropy T*S    EENTRO =        -0.00000000
  eigenvalues    EBANDS =        10.31508507
  atomic energy  EATOM  =       971.44149227
  ---------------------------------------------------
  free energy    TOTEN  =       -10.64492569 eV

  energy without entropy =      -10.64492569  energy(sigma->0) =      -10.64492569


--------------------------------------------------------------------------------------------------------




--------------------------------------- Iteration      1(   6)  ---------------------------------------


    TRIAL :  cpu time  513.6579: real time  525.6745
    CORREC:  cpu time   43.8393: real time   43.8443
    --------------------------------------------
      LOOP:  cpu time  557.6393: real time  569.6609

 eigenvalue-minimisations  :     0
 total energy-change (2. order) : 0.8412826E-11  (-0.1869146E-03)
 number of electron      28.0000001 magnetization      -0.0000580     -0.0000594     -0.0000590
 augmentation part       28.0000001 magnetization      -0.0000580     -0.0000594     -0.0000590

 Free energy of the ion-electron system (eV)
  ---------------------------------------------------
  alpha Z        PSCENC =         5.99831677
  Ewald energy   TEWEN  =      -983.58522533
  -Hartree energ DENC   =       -59.98562904
  -exchange      EXHF   =         0.00000000
  -V(xc)+E(xc)   XCENC  =      -303.85049003
  PAW double counting   =      1910.19755357    -1561.17602897
  entropy T*S    EENTRO =        -0.00000000
  eigenvalues    EBANDS =        10.31508507
  atomic energy  EATOM  =       971.44149227
  ---------------------------------------------------
  free energy    TOTEN  =       -10.64492569 eV

  energy without entropy =      -10.64492569  energy(sigma->0) =      -10.64492569


--------------------------------------------------------------------------------------------------------




--------------------------------------- Iteration      1(   7)  ---------------------------------------


    TRIAL :  cpu time  401.2571: real time  401.5724
    CORREC:  cpu time   43.5128: real time   44.6015
    --------------------------------------------
      LOOP:  cpu time  445.0925: real time  446.4964

 eigenvalue-minimisations  :     0
 total energy-change (2. order) :-0.1869146E-03  (-0.4890059E-04)
 number of electron      28.0000001 magnetization      -0.0000580     -0.0000594     -0.0000590
 augmentation part       28.0000001 magnetization      -0.0000580     -0.0000594     -0.0000590

 Free energy of the ion-electron system (eV)
  ---------------------------------------------------
  alpha Z        PSCENC =         5.99831677
  Ewald energy   TEWEN  =      -983.58522533
  -Hartree energ DENC   =       -59.98562904
  -exchange      EXHF   =         0.00000000
  -V(xc)+E(xc)   XCENC  =      -303.85049003
  PAW double counting   =      1910.19755357    -1561.17602897
  entropy T*S    EENTRO =        -0.00000000
  eigenvalues    EBANDS =        10.31489815
  atomic energy  EATOM  =       971.44149227
  ---------------------------------------------------
  free energy    TOTEN  =       -10.64511260 eV

  energy without entropy =      -10.64511260  energy(sigma->0) =      -10.64511260


--------------------------------------------------------------------------------------------------------




--------------------------------------- Iteration      1(   8)  ---------------------------------------


    TRIAL :  cpu time  398.8329: real time  404.1713
    CORREC:  cpu time   49.3737: real time   50.1600
    --------------------------------------------
      LOOP:  cpu time  448.2070: real time  454.3320

 eigenvalue-minimisations  :     0
 total energy-change (2. order) :-0.4889881E-04  (-0.1498199E-04)
 number of electron      28.0000001 magnetization      -0.0000580     -0.0000594     -0.0000590
 augmentation part       28.0000001 magnetization      -0.0000580     -0.0000594     -0.0000590

 Free energy of the ion-electron system (eV)
  ---------------------------------------------------
  alpha Z        PSCENC =         5.99831677
  Ewald energy   TEWEN  =      -983.58522533
  -Hartree energ DENC   =       -59.98562904
  -exchange      EXHF   =         0.00000000
  -V(xc)+E(xc)   XCENC  =      -303.85049003
  PAW double counting   =      1910.19755357    -1561.17602897
  entropy T*S    EENTRO =        -0.00000000
  eigenvalues    EBANDS =        10.31484925
  atomic energy  EATOM  =       971.44149227
  ---------------------------------------------------
  free energy    TOTEN  =       -10.64516150 eV

  energy without entropy =      -10.64516150  energy(sigma->0) =      -10.64516150


--------------------------------------------------------------------------------------------------------




--------------------------------------- Iteration      1(   9)  ---------------------------------------


    TRIAL :  cpu time  368.1567: real time  373.4793
    CORREC:  cpu time   46.3161: real time   47.1963
    --------------------------------------------
      LOOP:  cpu time  414.4738: real time  420.6762

 eigenvalue-minimisations  :     0
 total energy-change (2. order) :-0.1498190E-04  (-0.1138661E-05)
 number of electron      28.0000001 magnetization      -0.0000580     -0.0000594     -0.0000590
 augmentation part       28.0000001 magnetization      -0.0000580     -0.0000594     -0.0000590

 Free energy of the ion-electron system (eV)
  ---------------------------------------------------
  alpha Z        PSCENC =         5.99831677
  Ewald energy   TEWEN  =      -983.58522533
  -Hartree energ DENC   =       -59.98562904
  -exchange      EXHF   =         0.00000000
  -V(xc)+E(xc)   XCENC  =      -303.85049003
  PAW double counting   =      1910.19755357    -1561.17602897
  entropy T*S    EENTRO =        -0.00000000
  eigenvalues    EBANDS =        10.31483427
  atomic energy  EATOM  =       971.44149227
  ---------------------------------------------------
  free energy    TOTEN  =       -10.64517648 eV

  energy without entropy =      -10.64517648  energy(sigma->0) =      -10.64517648


--------------------------------------------------------------------------------------------------------




--------------------------------------- Iteration      1(  10)  ---------------------------------------


    TRIAL :  cpu time  360.5384: real time  365.4754
    CORREC:  cpu time   40.4054: real time   41.2856
    --------------------------------------------
      LOOP:  cpu time  400.9445: real time  406.7617

 eigenvalue-minimisations  :     0
 total energy-change (2. order) :-0.1138655E-05  (-0.9332343E-07)
 number of electron      28.0000001 magnetization      -0.0000580     -0.0000594     -0.0000590
 augmentation part       28.0000001 magnetization      -0.0000580     -0.0000594     -0.0000590

 Free energy of the ion-electron system (eV)
  ---------------------------------------------------
  alpha Z        PSCENC =         5.99831677
  Ewald energy   TEWEN  =      -983.58522533
  -Hartree energ DENC   =       -59.98562904
  -exchange      EXHF   =         0.00000000
  -V(xc)+E(xc)   XCENC  =      -303.85049003
  PAW double counting   =      1910.19755357    -1561.17602897
  entropy T*S    EENTRO =        -0.00000000
  eigenvalues    EBANDS =        10.31483313
  atomic energy  EATOM  =       971.44149227
  ---------------------------------------------------
  free energy    TOTEN  =       -10.64517762 eV

  energy without entropy =      -10.64517762  energy(sigma->0) =      -10.64517762


--------------------------------------------------------------------------------------------------------




--------------------------------------- Iteration      1(  11)  ---------------------------------------


    TRIAL :  cpu time  364.0016: real time  370.9723
    CORREC:  cpu time   47.3870: real time   47.7964
    EDDIAG:  cpu time  104.7746: real time  107.7679
    --------------------------------------------
      LOOP:  cpu time  516.1637: real time  526.5373

 eigenvalue-minimisations  :     0
 total energy-change (2. order) :-0.9332734E-07  (-0.1890090E-07)
 number of electron      28.0000001 magnetization      -0.0000580     -0.0000594     -0.0000590
 augmentation part       28.0000001 magnetization      -0.0000580     -0.0000594     -0.0000590

 Free energy of the ion-electron system (eV)
  ---------------------------------------------------
  alpha Z        PSCENC =         5.99831677
  Ewald energy   TEWEN  =      -983.58522533
  -Hartree energ DENC   =       -59.98562904
  -exchange      EXHF   =         0.00000000
  -V(xc)+E(xc)   XCENC  =      -303.85049003
  PAW double counting   =      1910.19755357    -1561.17602897
  entropy T*S    EENTRO =        -0.00000000
  eigenvalues    EBANDS =        10.31483304
  atomic energy  EATOM  =       971.44149227
  ---------------------------------------------------
  free energy    TOTEN  =       -10.64517771 eV

  energy without entropy =      -10.64517771  energy(sigma->0) =      -10.64517771


--------------------------------------------------------------------------------------------------------


  average scaling for gradient   1.3310


 average (electrostatic) potential at core
  the test charge radii are     1.4024  1.1897
  (the norm of the test charge is              1.0000)
       1 -61.7622       2 -61.7622       3 -88.6317       4 -88.8692       5 -88.8692



 E-fermi :   5.4732     XC(G=0):  -9.1625     alpha+bet :-10.3225


 k-point     1 :       0.5126    0.3250    0.3250
  band No.  band energies     occupation 
      1      -7.2416      1.00000
      2      -7.2416      1.00000
      3      -6.9376      1.00000
      4      -6.9376      1.00000
      5      -5.2345      1.00000
      6      -5.2345      1.00000
      7      -4.0889      1.00000
      8      -4.0889      1.00000
      9      -2.8386      1.00000
     10      -2.8386      1.00000
     11       1.7560      1.00000
     12       1.7560      1.00000
     13       2.3527      1.00000
     14       2.3527      1.00000
     15       2.7063      1.00000
     16       2.7063      1.00000
     17       3.2028      1.00000
     18       3.2028      1.00000
     19       3.4510      1.00000
     20       3.4510      1.00000
     21       3.7440      1.00000
     22       3.7440      1.00000
     23       4.3589      1.00000
     24       4.3589      1.00000
     25       4.6531      1.00000
     26       4.6532      1.00000
     27       5.3490      1.00000
     28       5.3491      1.00000
     29       5.6710      0.00000
     30       5.6710      0.00000
     31       6.9068      0.00000
     32       6.9068      0.00000
     33       7.1073      0.00000
     34       7.1073      0.00000
     35       7.8712      0.00000
     36       7.8712      0.00000
     37       8.2488      0.00000
     38       8.2488      0.00000
     39       8.5637      0.00000
     40       8.5637      0.00000
     41       9.8540      0.00000
     42       9.8541      0.00000
     43      10.8293      0.00000
     44      10.8294      0.00000
     45      11.1397      0.00000
     46      11.1397      0.00000
     47      11.3099      0.00000
     48      11.3099      0.00000
     49      11.9040      0.00000
     50      11.9040      0.00000
     51      12.2404      0.00000
     52      12.2404      0.00000
     53      13.0541      0.00000
     54      13.0541      0.00000
     55      13.5077      0.00000
     56      13.5078      0.00000
     57      13.5638      0.00000
     58      13.5638      0.00000
     59      14.0818      0.00000
     60      14.0818      0.00000
     61      14.3991      0.00000
     62      14.3992      0.00000
     63      14.8524      0.00000
     64      14.8525      0.00000
     65      14.9494      0.00000
     66      14.9494      0.00000
     67      15.1342      0.00000
     68      15.1342      0.00000
     69      15.4024      0.00000
     70      15.4025      0.00000
     71      16.5395      0.00000
     72      16.5395      0.00000
     73      16.7067      0.00000
     74      16.7067      0.00000
     75      16.9943      0.00000
     76      16.9943      0.00000
     77      17.1286      0.00000
     78      17.1286      0.00000
     79      17.4855      0.00000
     80      17.4855      0.00000
     81      18.4159      0.00000
     82      18.4160      0.00000
     83      18.8501      0.00000
     84      18.8502      0.00000
     85      19.4803      0.00000
     86      19.4805      0.00000
     87      20.6951      0.00000
     88      20.7898      0.00000

 k-point     2 :       0.4511    0.2635    0.2664
  band No.  band energies     occupation 
      1      -7.2724      1.00000
      2      -7.2724      1.00000
      3      -6.8972      1.00000
      4      -6.8972      1.00000
      5      -5.2955      1.00000
      6      -5.2955      1.00000
      7      -4.0198      1.00000
      8      -4.0198      1.00000
      9      -2.8559      1.00000
     10      -2.8559      1.00000
     11       1.7976      1.00000
     12       1.7976      1.00000
     13       2.2856      1.00000
     14       2.2856      1.00000
     15       2.7340      1.00000
     16       2.7340      1.00000
     17       3.1873      1.00000
     18       3.1873      1.00000
     19       3.4163      1.00000
     20       3.4163      1.00000
     21       3.7755      1.00000
     22       3.7755      1.00000
     23       4.4555      1.00000
     24       4.4555      1.00000
     25       4.6708      1.00000
     26       4.6708      1.00000
     27       5.3147      1.00000
     28       5.3147      1.00000
     29       5.7045      0.00000
     30       5.7045      0.00000
     31       6.9431      0.00000
     32       6.9431      0.00000
     33       7.0592      0.00000
     34       7.0592      0.00000
     35       7.7876      0.00000
     36       7.7876      0.00000
     37       8.2349      0.00000
     38       8.2349      0.00000
     39       8.5404      0.00000
     40       8.5404      0.00000
     41       9.7814      0.00000
     42       9.7814      0.00000
     43      10.8659      0.00000
     44      10.8659      0.00000
     45      11.2362      0.00000
     46      11.2362      0.00000
     47      11.3078      0.00000
     48      11.3078      0.00000
     49      11.9559      0.00000
     50      11.9560      0.00000
     51      12.1445      0.00000
     52      12.1445      0.00000
     53      13.2388      0.00000
     54      13.2388      0.00000
     55      13.5714      0.00000
     56      13.5714      0.00000
     57      13.7670      0.00000
     58      13.7670      0.00000
     59      13.8846      0.00000
     60      13.8846      0.00000
     61      14.4994      0.00000
     62      14.4995      0.00000
     63      14.6841      0.00000
     64      14.6841      0.00000
     65      14.8930      0.00000
     66      14.8930      0.00000
     67      14.9822      0.00000
     68      14.9822      0.00000
     69      15.4975      0.00000
     70      15.4975      0.00000
     71      16.2591      0.00000
     72      16.2591      0.00000
     73      16.5081      0.00000
     74      16.5081      0.00000
     75      16.7272      0.00000
     76      16.7272      0.00000
     77      17.1845      0.00000
     78      17.1845      0.00000
     79      17.3942      0.00000
     80      17.3942      0.00000
     81      18.6895      0.00000
     82      18.6895      0.00000
     83      19.1942      0.00000
     84      19.1942      0.00000
     85      19.8698      0.00000
     86      19.8710      0.00000
     87      20.6892      0.00000
     88      20.7315      0.00000

 k-point     3 :       0.4818    0.2942    0.2957
  band No.  band energies     occupation 
      1      -7.2567      1.00000
      2      -7.2567      1.00000
      3      -6.9186      1.00000
      4      -6.9186      1.00000
      5      -5.2628      1.00000
      6      -5.2628      1.00000
      7      -4.0576      1.00000
      8      -4.0576      1.00000
      9      -2.8452      1.00000
     10      -2.8452      1.00000
     11       1.7756      1.00000
     12       1.7756      1.00000
     13       2.3187      1.00000
     14       2.3187      1.00000
     15       2.7228      1.00000
     16       2.7228      1.00000
     17       3.1933      1.00000
     18       3.1933      1.00000
     19       3.4342      1.00000
     20       3.4342      1.00000
     21       3.7564      1.00000
     22       3.7564      1.00000
     23       4.4106      1.00000
     24       4.4106      1.00000
     25       4.6610      1.00000
     26       4.6610      1.00000
     27       5.3398      1.00000
     28       5.3398      1.00000
     29       5.6804      0.00000
     30       5.6804      0.00000
     31       6.9259      0.00000
     32       6.9259      0.00000
     33       7.0814      0.00000
     34       7.0814      0.00000
     35       7.8313      0.00000
     36       7.8313      0.00000
     37       8.2418      0.00000
     38       8.2418      0.00000
     39       8.5502      0.00000
     40       8.5502      0.00000
     41       9.8172      0.00000
     42       9.8172      0.00000
     43      10.8604      0.00000
     44      10.8605      0.00000
     45      11.1842      0.00000
     46      11.1842      0.00000
     47      11.2917      0.00000
     48      11.2918      0.00000
     49      11.9368      0.00000
     50      11.9368      0.00000
     51      12.1824      0.00000
     52      12.1824      0.00000
     53      13.1485      0.00000
     54      13.1485      0.00000
     55      13.5574      0.00000
     56      13.5575      0.00000
     57      13.6655      0.00000
     58      13.6655      0.00000
     59      13.9622      0.00000
     60      13.9622      0.00000
     61      14.4533      0.00000
     62      14.4533      0.00000
     63      14.7863      0.00000
     64      14.7864      0.00000
     65      14.9102      0.00000
     66      14.9102      0.00000
     67      15.0684      0.00000
     68      15.0685      0.00000
     69      15.4350      0.00000
     70      15.4351      0.00000
     71      16.4005      0.00000
     72      16.4005      0.00000
     73      16.6184      0.00000
     74      16.6184      0.00000
     75      16.8537      0.00000
     76      16.8537      0.00000
     77      17.2206      0.00000
     78      17.2206      0.00000
     79      17.3491      0.00000
     80      17.3491      0.00000
     81      18.5484      0.00000
     82      18.5484      0.00000
     83      19.0140      0.00000
     84      19.0141      0.00000
     85      19.6807      0.00000
     86      19.6883      0.00000
     87      20.8007      0.00000
     88      20.8468      0.00000

 k-point     4 :       0.5433    0.3557    0.3543
  band No.  band energies     occupation 
      1      -7.2281      1.00000
      2      -7.2281      1.00000
      3      -6.9532      1.00000
      4      -6.9532      1.00000
      5      -5.2122      1.00000
      6      -5.2122      1.00000
      7      -4.1124      1.00000
      8      -4.1124      1.00000
      9      -2.8362      1.00000
     10      -2.8362      1.00000
     11       1.7387      1.00000
     12       1.7387      1.00000
     13       2.3869      1.00000
     14       2.3869      1.00000
     15       2.6861      1.00000
     16       2.6861      1.00000
     17       3.2132      1.00000
     18       3.2132      1.00000
     19       3.4672      1.00000
     20       3.4672      1.00000
     21       3.7378      1.00000
     22       3.7378      1.00000
     23       4.3073      1.00000
     24       4.3073      1.00000
     25       4.6419      1.00000
     26       4.6419      1.00000
     27       5.3401      1.00000
     28       5.3401      1.00000
     29       5.6787      0.00000
     30       5.6787      0.00000
     31       6.8931      0.00000
     32       6.8931      0.00000
     33       7.1299      0.00000
     34       7.1299      0.00000
     35       7.9037      0.00000
     36       7.9037      0.00000
     37       8.2602      0.00000
     38       8.2602      0.00000
     39       8.5786      0.00000
     40       8.5786      0.00000
     41       9.8906      0.00000
     42       9.8906      0.00000
     43      10.7831      0.00000
     44      10.7832      0.00000
     45      11.0994      0.00000
     46      11.0995      0.00000
     47      11.3560      0.00000
     48      11.3560      0.00000
     49      11.8673      0.00000
     50      11.8673      0.00000
     51      12.3088      0.00000
     52      12.3088      0.00000
     53      12.9600      0.00000
     54      12.9600      0.00000
     55      13.4393      0.00000
     56      13.4393      0.00000
     57      13.4822      0.00000
     58      13.4822      0.00000
     59      14.1760      0.00000
     60      14.1760      0.00000
     61      14.3667      0.00000
     62      14.3667      0.00000
     63      14.8811      0.00000
     64      14.8811      0.00000
     65      15.0130      0.00000
     66      15.0130      0.00000
     67      15.1279      0.00000
     68      15.1279      0.00000
     69      15.4503      0.00000
     70      15.4504      0.00000
     71      16.6594      0.00000
     72      16.6594      0.00000
     73      16.7363      0.00000
     74      16.7364      0.00000
     75      17.1009      0.00000
     76      17.1009      0.00000
     77      17.1777      0.00000
     78      17.1778      0.00000
     79      17.6153      0.00000
     80      17.6153      0.00000
     81      18.2998      0.00000
     82      18.2998      0.00000
     83      18.7132      0.00000
     84      18.7132      0.00000
     85      19.2754      0.00000
     86      19.2756      0.00000
     87      20.5132      0.00000
     88      20.5525      0.00000

 k-point     5 :       0.5740    0.3865    0.3836
  band No.  band energies     occupation 
      1      -7.2171      1.00000
      2      -7.2171      1.00000
      3      -6.9639      1.00000
      4      -6.9639      1.00000
      5      -5.1970      1.00000
      6      -5.1970      1.00000
      7      -4.1270      1.00000
      8      -4.1270      1.00000
      9      -2.8378      1.00000
     10      -2.8378      1.00000
     11       1.7238      1.00000
     12       1.7239      1.00000
     13       2.4205      1.00000
     14       2.4205      1.00000
     15       2.6636      1.00000
     16       2.6636      1.00000
     17       3.2221      1.00000
     18       3.2221      1.00000
     19       3.4839      1.00000
     20       3.4839      1.00000
     21       3.7360      1.00000
     22       3.7360      1.00000
     23       4.2611      1.00000
     24       4.2611      1.00000
     25       4.6249      1.00000
     26       4.6249      1.00000
     27       5.3156      1.00000
     28       5.3156      1.00000
     29       5.7011      0.00000
     30       5.7011      0.00000
     31       6.8869      0.00000
     32       6.8869      0.00000
     33       7.1469      0.00000
     34       7.1469      0.00000
     35       7.9252      0.00000
     36       7.9252      0.00000
     37       8.2800      0.00000
     38       8.2800      0.00000
     39       8.5930      0.00000
     40       8.5930      0.00000
     41       9.9250      0.00000
     42       9.9250      0.00000
     43      10.7329      0.00000
     44      10.7330      0.00000
     45      11.0632      0.00000
     46      11.0633      0.00000
     47      11.4203      0.00000
     48      11.4203      0.00000
     49      11.8306      0.00000
     50      11.8306      0.00000
     51      12.3839      0.00000
     52      12.3839      0.00000
     53      12.8698      0.00000
     54      12.8698      0.00000
     55      13.3569      0.00000
     56      13.3569      0.00000
     57      13.4255      0.00000
     58      13.4256      0.00000
     59      14.1614      0.00000
     60      14.1614      0.00000
     61      14.4277      0.00000
     62      14.4278      0.00000
     63      14.9123      0.00000
     64      14.9124      0.00000
     65      14.9989      0.00000
     66      14.9989      0.00000
     67      15.1354      0.00000
     68      15.1354      0.00000
     69      15.5516      0.00000
     70      15.5516      0.00000
     71      16.6676      0.00000
     72      16.6676      0.00000
     73      16.8068      0.00000
     74      16.8068      0.00000
     75      17.1947      0.00000
     76      17.1947      0.00000
     77      17.3362      0.00000
     78      17.3362      0.00000
     79      17.7101      0.00000
     80      17.7101      0.00000
     81      18.2202      0.00000
     82      18.2203      0.00000
     83      18.6173      0.00000
     84      18.6173      0.00000
     85      19.0688      0.00000
     86      19.0688      0.00000
     87      20.3203      0.00000
     88      20.4157      0.00000

 k-point     6 :       0.5259    0.3116    0.3250
  band No.  band energies     occupation 
      1      -7.1760      1.00000
      2      -7.1759      1.00000
      3      -6.8787      1.00000
      4      -6.8787      1.00000
      5      -5.2061      1.00000
      6      -5.2061      1.00000
      7      -4.1187      1.00000
      8      -4.1187      1.00000
      9      -2.9464      1.00000
     10      -2.9464      1.00000
     11       1.6118      1.00000
     12       1.6118      1.00000
     13       2.3050      1.00000
     14       2.3051      1.00000
     15       2.5556      1.00000
     16       2.5556      1.00000
     17       3.0558      1.00000
     18       3.0559      1.00000
     19       3.3943      1.00000
     20       3.3943      1.00000
     21       3.6181      1.00000
     22       3.6181      1.00000
     23       4.3910      1.00000
     24       4.3910      1.00000
     25       4.6567      1.00000
     26       4.6567      1.00000
     27       5.2954      1.00000
     28       5.2954      1.00000
     29       5.7354      0.00000
     30       5.7354      0.00000
     31       6.9271      0.00000
     32       6.9271      0.00000
     33       7.1944      0.00000
     34       7.1944      0.00000
     35       7.8570      0.00000
     36       7.8570      0.00000
     37       8.4443      0.00000
     38       8.4443      0.00000
     39       8.6917      0.00000
     40       8.6917      0.00000
     41       9.7679      0.00000
     42       9.7680      0.00000
     43      10.7426      0.00000
     44      10.7426      0.00000
     45      11.2209      0.00000
     46      11.2210      0.00000
     47      11.3289      0.00000
     48      11.3289      0.00000
     49      12.0696      0.00000
     50      12.0697      0.00000
     51      12.3041      0.00000
     52      12.3042      0.00000
     53      13.0785      0.00000
     54      13.0786      0.00000
     55      13.5585      0.00000
     56      13.5585      0.00000
     57      13.7710      0.00000
     58      13.7710      0.00000
     59      14.2248      0.00000
     60      14.2248      0.00000
     61      14.6300      0.00000
     62      14.6300      0.00000
     63      15.0165      0.00000
     64      15.0166      0.00000
     65      15.1662      0.00000
     66      15.1663      0.00000
     67      15.3681      0.00000
     68      15.3681      0.00000
     69      15.6058      0.00000
     70      15.6059      0.00000
     71      16.4644      0.00000
     72      16.4644      0.00000
     73      16.5791      0.00000
     74      16.5791      0.00000
     75      16.9546      0.00000
     76      16.9546      0.00000
     77      17.0532      0.00000
     78      17.0533      0.00000
     79      17.7492      0.00000
     80      17.7493      0.00000
     81      18.6738      0.00000
     82      18.6738      0.00000
     83      19.0657      0.00000
     84      19.0657      0.00000
     85      19.3445      0.00000
     86      19.3446      0.00000
     87      20.5772      0.00000
     88      20.7003      0.00000

 k-point     7 :       0.5192    0.3183    0.3250
  band No.  band energies     occupation 
      1      -7.2098      1.00000
      2      -7.2098      1.00000
      3      -6.9091      1.00000
      4      -6.9090      1.00000
      5      -5.2205      1.00000
      6      -5.2205      1.00000
      7      -4.1031      1.00000
      8      -4.1031      1.00000
      9      -2.8912      1.00000
     10      -2.8911      1.00000
     11       1.6819      1.00000
     12       1.6820      1.00000
     13       2.3316      1.00000
     14       2.3317      1.00000
     15       2.6322      1.00000
     16       2.6322      1.00000
     17       3.1309      1.00000
     18       3.1309      1.00000
     19       3.4206      1.00000
     20       3.4206      1.00000
     21       3.6764      1.00000
     22       3.6765      1.00000
     23       4.3764      1.00000
     24       4.3764      1.00000
     25       4.6570      1.00000
     26       4.6570      1.00000
     27       5.3327      1.00000
     28       5.3327      1.00000
     29       5.6928      0.00000
     30       5.6928      0.00000
     31       6.9146      0.00000
     32       6.9146      0.00000
     33       7.1563      0.00000
     34       7.1563      0.00000
     35       7.8710      0.00000
     36       7.8710      0.00000
     37       8.3424      0.00000
     38       8.3424      0.00000
     39       8.6247      0.00000
     40       8.6247      0.00000
     41       9.8095      0.00000
     42       9.8095      0.00000
     43      10.7866      0.00000
     44      10.7867      0.00000
     45      11.1960      0.00000
     46      11.1960      0.00000
     47      11.3009      0.00000
     48      11.3010      0.00000
     49      11.9828      0.00000
     50      11.9829      0.00000
     51      12.2656      0.00000
     52      12.2656      0.00000
     53      13.0705      0.00000
     54      13.0705      0.00000
     55      13.5447      0.00000
     56      13.5447      0.00000
     57      13.6416      0.00000
     58      13.6417      0.00000
     59      14.1529      0.00000
     60      14.1530      0.00000
     61      14.5173      0.00000
     62      14.5174      0.00000
     63      14.9516      0.00000
     64      14.9517      0.00000
     65      15.0514      0.00000
     66      15.0515      0.00000
     67      15.2428      0.00000
     68      15.2428      0.00000
     69      15.5021      0.00000
     70      15.5021      0.00000
     71      16.5191      0.00000
     72      16.5191      0.00000
     73      16.6343      0.00000
     74      16.6343      0.00000
     75      16.9792      0.00000
     76      16.9792      0.00000
     77      17.0660      0.00000
     78      17.0660      0.00000
     79      17.6126      0.00000
     80      17.6127      0.00000
     81      18.5444      0.00000
     82      18.5445      0.00000
     83      18.9517      0.00000
     84      18.9517      0.00000
     85      19.4153      0.00000
     86      19.4154      0.00000
     87      20.6418      0.00000
     88      20.8006      0.00000

 k-point     8 :       0.5059    0.3316    0.3250
  band No.  band energies     occupation 
      1      -7.2714      1.00000
      2      -7.2714      1.00000
      3      -6.9644      1.00000
      4      -6.9644      1.00000
      5      -5.2480      1.00000
      6      -5.2480      1.00000
      7      -4.0761      1.00000
      8      -4.0761      1.00000
      9      -2.7889      1.00000
     10      -2.7889      1.00000
     11       1.8335      1.00000
     12       1.8335      1.00000
     13       2.3705      1.00000
     14       2.3706      1.00000
     15       2.7740      1.00000
     16       2.7740      1.00000
     17       3.2717      1.00000
     18       3.2717      1.00000
     19       3.4871      1.00000
     20       3.4871      1.00000
     21       3.8186      1.00000
     22       3.8186      1.00000
     23       4.3420      1.00000
     24       4.3420      1.00000
     25       4.6428      1.00000
     26       4.6428      1.00000
     27       5.3372      1.00000
     28       5.3372      1.00000
     29       5.6774      0.00000
     30       5.6774      0.00000
     31       6.9018      0.00000
     32       6.9018      0.00000
     33       7.0496      0.00000
     34       7.0496      0.00000
     35       7.8439      0.00000
     36       7.8439      0.00000
     37       8.1788      0.00000
     38       8.1788      0.00000
     39       8.5077      0.00000
     40       8.5077      0.00000
     41       9.9015      0.00000
     42       9.9016      0.00000
     43      10.8681      0.00000
     44      10.8681      0.00000
     45      11.0766      0.00000
     46      11.0767      0.00000
     47      11.3347      0.00000
     48      11.3347      0.00000
     49      11.8320      0.00000
     50      11.8320      0.00000
     51      12.2290      0.00000
     52      12.2290      0.00000
     53      13.0186      0.00000
     54      13.0186      0.00000
     55      13.4185      0.00000
     56      13.4186      0.00000
     57      13.5770      0.00000
     58      13.5770      0.00000
     59      14.0114      0.00000
     60      14.0114      0.00000
     61      14.2771      0.00000
     62      14.2771      0.00000
     63      14.7362      0.00000
     64      14.7363      0.00000
     65      14.8298      0.00000
     66      14.8298      0.00000
     67      15.0555      0.00000
     68      15.0555      0.00000
     69      15.3124      0.00000
     70      15.3125      0.00000
     71      16.5218      0.00000
     72      16.5218      0.00000
     73      16.7929      0.00000
     74      16.7930      0.00000
     75      17.0259      0.00000
     76      17.0260      0.00000
     77      17.2043      0.00000
     78      17.2043      0.00000
     79      17.3749      0.00000
     80      17.3750      0.00000
     81      18.2942      0.00000
     82      18.2942      0.00000
     83      18.7627      0.00000
     84      18.7627      0.00000
     85      19.5359      0.00000
     86      19.5363      0.00000
     87      20.7112      0.00000
     88      20.8251      0.00000

 k-point     9 :       0.4992    0.3383    0.3250
  band No.  band energies     occupation 
      1      -7.2990      1.00000
      2      -7.2990      1.00000
      3      -6.9893      1.00000
      4      -6.9893      1.00000
      5      -5.2609      1.00000
      6      -5.2609      1.00000
      7      -4.0647      1.00000
      8      -4.0647      1.00000
      9      -2.7423      1.00000
     10      -2.7423      1.00000
     11       1.9140      1.00000
     12       1.9140      1.00000
     13       2.3865      1.00000
     14       2.3865      1.00000
     15       2.8327      1.00000
     16       2.8328      1.00000
     17       3.3362      1.00000
     18       3.3362      1.00000
     19       3.5320      1.00000
     20       3.5320      1.00000
     21       3.8962      1.00000
     22       3.8962      1.00000
     23       4.3295      1.00000
     24       4.3295      1.00000
     25       4.6245      1.00000
     26       4.6245      1.00000
     27       5.3036      1.00000
     28       5.3036      1.00000
     29       5.7063      0.00000
     30       5.7063      0.00000
     31       6.8908      0.00000
     32       6.8908      0.00000
     33       6.9923      0.00000
     34       6.9923      0.00000
     35       7.7810      0.00000
     36       7.7810      0.00000
     37       8.1405      0.00000
     38       8.1405      0.00000
     39       8.4572      0.00000
     40       8.4572      0.00000
     41       9.9519      0.00000
     42       9.9519      0.00000
     43      10.8975      0.00000
     44      10.8975      0.00000
     45      11.0188      0.00000
     46      11.0189      0.00000
     47      11.3697      0.00000
     48      11.3697      0.00000
     49      11.7658      0.00000
     50      11.7658      0.00000
     51      12.2316      0.00000
     52      12.2316      0.00000
     53      12.9590      0.00000
     54      12.9590      0.00000
     55      13.3490      0.00000
     56      13.3491      0.00000
     57      13.6125      0.00000
     58      13.6125      0.00000
     59      13.9426      0.00000
     60      13.9427      0.00000
     61      14.1545      0.00000
     62      14.1545      0.00000
     63      14.6103      0.00000
     64      14.6103      0.00000
     65      14.6967      0.00000
     66      14.6967      0.00000
     67      14.9949      0.00000
     68      14.9949      0.00000
     69      15.2364      0.00000
     70      15.2364      0.00000
     71      16.4781      0.00000
     72      16.4781      0.00000
     73      16.8811      0.00000
     74      16.8811      0.00000
     75      17.0622      0.00000
     76      17.0623      0.00000
     77      17.2359      0.00000
     78      17.2359      0.00000
     79      17.3391      0.00000
     80      17.3391      0.00000
     81      18.1871      0.00000
     82      18.1871      0.00000
     83      18.6889      0.00000
     84      18.6889      0.00000
     85      19.5805      0.00000
     86      19.5809      0.00000
     87      20.7078      0.00000
     88      20.8012      0.00000

 k-point    10 :       0.5126    0.3250    0.3021
  band No.  band energies     occupation 
      1      -7.2054      1.00000
      2      -7.2054      1.00000
      3      -6.8970      1.00000
      4      -6.8970      1.00000
      5      -5.2238      1.00000
      6      -5.2238      1.00000
      7      -4.0990      1.00000
      8      -4.0990      1.00000
      9      -2.9063      1.00000
     10      -2.9063      1.00000
     11       1.6743      1.00000
     12       1.6744      1.00000
     13       2.3166      1.00000
     14       2.3166      1.00000
     15       2.5912      1.00000
     16       2.5912      1.00000
     17       3.1089      1.00000
     18       3.1089      1.00000
     19       3.4270      1.00000
     20       3.4271      1.00000
     21       3.7022      1.00000
     22       3.7022      1.00000
     23       4.3832      1.00000
     24       4.3832      1.00000
     25       4.6335      1.00000
     26       4.6335      1.00000
     27       5.2456      1.00000
     28       5.2456      1.00000
     29       5.7902      0.00000
     30       5.7902      0.00000
     31       6.9394      0.00000
     32       6.9394      0.00000
     33       7.1448      0.00000
     34       7.1448      0.00000
     35       7.8567      0.00000
     36       7.8567      0.00000
     37       8.3620      0.00000
     38       8.3620      0.00000
     39       8.6389      0.00000
     40       8.6390      0.00000
     41       9.8016      0.00000
     42       9.8017      0.00000
     43      10.7867      0.00000
     44      10.7868      0.00000
     45      11.1893      0.00000
     46      11.1893      0.00000
     47      11.2622      0.00000
     48      11.2622      0.00000
     49      12.0304      0.00000
     50      12.0304      0.00000
     51      12.2980      0.00000
     52      12.2980      0.00000
     53      13.0763      0.00000
     54      13.0763      0.00000
     55      13.6087      0.00000
     56      13.6088      0.00000
     57      13.6879      0.00000
     58      13.6880      0.00000
     59      14.1367      0.00000
     60      14.1368      0.00000
     61      14.5428      0.00000
     62      14.5429      0.00000
     63      14.8629      0.00000
     64      14.8630      0.00000
     65      15.0341      0.00000
     66      15.0341      0.00000
     67      15.3498      0.00000
     68      15.3498      0.00000
     69      15.5651      0.00000
     70      15.5651      0.00000
     71      16.3941      0.00000
     72      16.3941      0.00000
     73      16.6028      0.00000
     74      16.6028      0.00000
     75      17.0108      0.00000
     76      17.0108      0.00000
     77      17.1100      0.00000
     78      17.1100      0.00000
     79      17.6089      0.00000
     80      17.6089      0.00000
     81      18.6078      0.00000
     82      18.6079      0.00000
     83      19.0166      0.00000
     84      19.0167      0.00000
     85      19.4115      0.00000
     86      19.4116      0.00000
     87      20.6704      0.00000
     88      20.9095      0.00000

 k-point    11 :       0.5126    0.3250    0.3135
  band No.  band energies     occupation 
      1      -7.2245      1.00000
      2      -7.2245      1.00000
      3      -6.9183      1.00000
      4      -6.9183      1.00000
      5      -5.2294      1.00000
      6      -5.2294      1.00000
      7      -4.0936      1.00000
      8      -4.0936      1.00000
      9      -2.8707      1.00000
     10      -2.8707      1.00000
[...]
  0.000   0.000   0.000   0.000   9.920   0.000   0.000   0.000  -0.000  -0.519   8.424   0.000   0.000   0.000  -0.000  -0.432
  0.006   0.000   0.007   0.000   0.000   0.000   9.920   0.000  -0.000   0.000   0.000   0.000   8.424   0.000  -0.000   0.000
  0.048   0.000   0.055   0.000  -0.000   0.519  -0.000   0.000   9.919   0.000  -0.000   0.432  -0.000   0.000   8.423   0.000
  0.000   0.000   0.000   0.000   8.424   0.000   0.000   0.000  -0.000  -0.432   7.226   0.000   0.000   0.000   0.000  -0.359
  0.005   0.000   0.006   0.000   0.000   0.000   8.424   0.000  -0.000   0.000   0.000   0.000   7.226   0.000  -0.000   0.000
  0.041   0.000   0.046   0.000  -0.000   0.432  -0.000   0.000   8.423   0.000   0.000   0.359  -0.000   0.000   7.225   0.000
 -0.000   0.000  -0.000   0.000   0.009   0.000  -0.000   0.000  -0.000   0.000   0.008   0.000  -0.000   0.000  -0.000   0.000
  0.000   0.000   0.000   0.000   0.000   0.000   0.000   0.000  -0.000   0.000  -0.000   0.000   0.000   0.000  -0.000   0.000
  0.000   0.000   0.000   0.000   0.000   0.000   0.002   0.000  -0.006   0.000   0.000   0.000   0.002   0.000  -0.005   0.000
 -0.000   0.000  -0.000   0.000  -0.000   0.000   0.009   0.000   0.001   0.000  -0.000   0.000   0.008   0.000   0.001   0.000
 -0.001   0.000  -0.001   0.000   0.000   0.000   0.001   0.000   0.010   0.000   0.000   0.000   0.001   0.000   0.009   0.000
 total augmentation occupancy for first ion, spin component:           1
  2.000   0.000   0.000   0.000   0.000   0.000   0.000   0.000   0.000   0.000   0.000   0.000   0.000
  0.000   0.000   0.000   0.000   0.000   0.000   0.000   0.000   0.000   0.000   0.000   0.000   0.000
  0.000   0.000   1.000   0.000   0.000   0.000   0.000   0.000   0.000   0.000   0.000   0.000   0.000
  0.000   0.000   0.000   1.000   0.000   0.000   0.000   0.000   0.000   0.000   0.000   0.000   0.000
  0.000   0.000   0.000   0.000   1.000   0.000   0.000   0.000   0.000   0.000   0.000   0.000   0.000
  0.000   0.000   0.000   0.000   0.000   0.000   0.000   0.000   0.000   0.000   0.000   0.000   0.000
  0.000   0.000   0.000   0.000   0.000   0.000   0.000   0.000   0.000   0.000   0.000   0.000   0.000
  0.000   0.000   0.000   0.000   0.000   0.000   0.000   0.000   0.000   0.000   0.000   0.000   0.000
  0.000   0.000   0.000   0.000   0.000   0.000   0.000   0.000   0.000   0.000   0.000   0.000   0.000
  0.000   0.000   0.000   0.000   0.000   0.000   0.000   0.000   0.000   0.000   0.000   0.000   0.000
  0.000   0.000   0.000   0.000   0.000   0.000   0.000   0.000   0.000   0.000   0.000   0.000   0.000
  0.000   0.000   0.000   0.000   0.000   0.000   0.000   0.000   0.000   0.000   0.000   0.000   0.000
  0.000   0.000   0.000   0.000   0.000   0.000   0.000   0.000   0.000   0.000   0.000   0.000   0.000
 total augmentation occupancy for first ion, spin component:           2
  0.400   0.000   0.000   0.000   0.000   0.000   0.000   0.000   0.000   0.000   0.000   0.000   0.000
  0.000   0.000   0.000   0.000   0.000   0.000   0.000   0.000   0.000   0.000   0.000   0.000   0.000
  0.000   0.000   0.200   0.000   0.000   0.000   0.000   0.000   0.000   0.000   0.000   0.000   0.000
  0.000   0.000   0.000   0.200   0.000   0.000   0.000   0.000   0.000   0.000   0.000   0.000   0.000
  0.000   0.000   0.000   0.000   0.200   0.000   0.000   0.000   0.000   0.000   0.000   0.000   0.000
  0.000   0.000   0.000   0.000   0.000   0.000   0.000   0.000   0.000   0.000   0.000   0.000   0.000
  0.000   0.000   0.000   0.000   0.000   0.000   0.000   0.000   0.000   0.000   0.000   0.000   0.000
  0.000   0.000   0.000   0.000   0.000   0.000   0.000   0.000   0.000   0.000   0.000   0.000   0.000
  0.000   0.000   0.000   0.000   0.000   0.000   0.000   0.000   0.000   0.000   0.000   0.000   0.000
  0.000   0.000   0.000   0.000   0.000   0.000   0.000   0.000   0.000   0.000   0.000   0.000   0.000
  0.000   0.000   0.000   0.000   0.000   0.000   0.000   0.000   0.000   0.000   0.000   0.000   0.000
  0.000   0.000   0.000   0.000   0.000   0.000   0.000   0.000   0.000   0.000   0.000   0.000   0.000
  0.000   0.000   0.000   0.000   0.000   0.000   0.000   0.000   0.000   0.000   0.000   0.000   0.000
 total augmentation occupancy for first ion, spin component:           3
  0.400   0.000   0.000   0.000   0.000   0.000   0.000   0.000   0.000   0.000   0.000   0.000   0.000
  0.000   0.000   0.000   0.000   0.000   0.000   0.000   0.000   0.000   0.000   0.000   0.000   0.000
  0.000   0.000   0.200   0.000   0.000   0.000   0.000   0.000   0.000   0.000   0.000   0.000   0.000
  0.000   0.000   0.000   0.200   0.000   0.000   0.000   0.000   0.000   0.000   0.000   0.000   0.000
  0.000   0.000   0.000   0.000   0.200   0.000   0.000   0.000   0.000   0.000   0.000   0.000   0.000
  0.000   0.000   0.000   0.000   0.000   0.000   0.000   0.000   0.000   0.000   0.000   0.000   0.000
  0.000   0.000   0.000   0.000   0.000   0.000   0.000   0.000   0.000   0.000   0.000   0.000   0.000
  0.000   0.000   0.000   0.000   0.000   0.000   0.000   0.000   0.000   0.000   0.000   0.000   0.000
  0.000   0.000   0.000   0.000   0.000   0.000   0.000   0.000   0.000   0.000   0.000   0.000   0.000
  0.000   0.000   0.000   0.000   0.000   0.000   0.000   0.000   0.000   0.000   0.000   0.000   0.000
  0.000   0.000   0.000   0.000   0.000   0.000   0.000   0.000   0.000   0.000   0.000   0.000   0.000
  0.000   0.000   0.000   0.000   0.000   0.000   0.000   0.000   0.000   0.000   0.000   0.000   0.000
  0.000   0.000   0.000   0.000   0.000   0.000   0.000   0.000   0.000   0.000   0.000   0.000   0.000
 total augmentation occupancy for first ion, spin component:           4
  0.400   0.000   0.000   0.000   0.000   0.000   0.000   0.000   0.000   0.000   0.000   0.000   0.000
  0.000   0.000   0.000   0.000   0.000   0.000   0.000   0.000   0.000   0.000   0.000   0.000   0.000
  0.000   0.000   0.200   0.000   0.000   0.000   0.000   0.000   0.000   0.000   0.000   0.000   0.000
  0.000   0.000   0.000   0.200   0.000   0.000   0.000   0.000   0.000   0.000   0.000   0.000   0.000
  0.000   0.000   0.000   0.000   0.200   0.000   0.000   0.000   0.000   0.000   0.000   0.000   0.000
  0.000   0.000   0.000   0.000   0.000   0.000   0.000   0.000   0.000   0.000   0.000   0.000   0.000
  0.000   0.000   0.000   0.000   0.000   0.000   0.000   0.000   0.000   0.000   0.000   0.000   0.000
  0.000   0.000   0.000   0.000   0.000   0.000   0.000   0.000   0.000   0.000   0.000   0.000   0.000
  0.000   0.000   0.000   0.000   0.000   0.000   0.000   0.000   0.000   0.000   0.000   0.000   0.000
  0.000   0.000   0.000   0.000   0.000   0.000   0.000   0.000   0.000   0.000   0.000   0.000   0.000
  0.000   0.000   0.000   0.000   0.000   0.000   0.000   0.000   0.000   0.000   0.000   0.000   0.000
  0.000   0.000   0.000   0.000   0.000   0.000   0.000   0.000   0.000   0.000   0.000   0.000   0.000
  0.000   0.000   0.000   0.000   0.000   0.000   0.000   0.000   0.000   0.000   0.000   0.000   0.000


------------------------ aborting loop because EDIFF is reached ----------------------------------------


    CHARGE:  cpu time   17.0095: real time   17.5591
    FORLOC:  cpu time    0.3825: real time    0.3827
    FORNL :  cpu time   46.2127: real time   47.1429
    STRESS:  cpu time  127.7505: real time  128.1250
    FORCOR:  cpu time    6.4615: real time    6.7148
    FORHAR:  cpu time    0.2617: real time    0.2617
    OFIELD:  cpu time    0.0155: real time    0.0155

 ---------------------------------------------------------------------------------------------

         DFTD3 V3.0 Rev 1        
 IVDW         = 11
 DF pbe       
 parameters
 VDW_S6       =    1.0000
 VDW_S8       =    0.7220
 VDW_SR       =    1.2170
 rs18     =    1.0000
 alpha6   =   14.0000
 alpha8   =   16.0000
 k1-k3    =   16.0000    1.3333   -4.0000
 VDW_RADIUS   =   50.2022 A
 VDW_CNRADIUS =   21.1671 A
 Edisp (eV)   -1.44006

 E6    (eV) :    -0.5341
 E8    (eV) :    -0.9060
 % E8        : 62.91
    FORVDW:  cpu time    0.0607: real time    0.0738

  FORCE on cell =-STRESS in cart. coord.  units (eV):
  Direction    XX          YY          ZZ          XY          YZ          ZX
  --------------------------------------------------------------------------------------
  Alpha Z     5.99832     5.99832     5.99832
  Ewald    -328.18772  -327.69505  -327.70289     0.00000     0.00000    -0.06217
  Hartree    22.15174    23.23298    22.08954     0.58794     1.16742     0.44275
  E(xc)    -115.88331  -116.34209  -116.38587     0.07054     0.06432     0.11091
  Local    -169.13068  -173.69894  -172.20428     1.58921    -0.87255     1.26993
  n-local   494.24199   497.16745   497.95474    -2.56042    -1.41218    -2.09498
  augment  -135.65630  -136.98078  -137.29217     0.40466     0.40367     0.47802
  Kinetic   235.97551   249.09637   258.99157     1.37576    -8.75418    -2.79452
  Fock        0.00000     0.00000     0.00000     0.00000     0.00000     0.00000
  vdW        -1.55260    -1.18955    -1.19533     0.00000    -0.00000    -0.04581
  -------------------------------------------------------------------------------------
  Total       7.95694    19.58871    30.25362     1.46769    -9.40349    -2.69588
  in kB      73.84883   181.80405   280.78576    13.62177   -87.27438   -25.02061
  external pressure =      178.81 kB  Pullay stress =        0.00 kB


 VOLUME and BASIS-vectors are now :
 -----------------------------------------------------------------------------
  energy-cutoff  :      600.00
  volume of cell :      172.63
      direct lattice vectors                 reciprocal lattice vectors
    10.222282710 -2.216677340  0.000000000     0.048912754 -0.225562824 -0.125089241
    10.222282710  2.216677340  0.000000000     0.048912754  0.225562824 -0.125089241
     9.741601570  0.000000000  3.809189020    -0.000000000  0.000000000  0.262523071

  length of vectors
    10.459862439 10.459862439 10.459862434     0.262523071  0.262523071  0.262523071


 FORCES acting on ions
    electron-ion (+dipol)            ewald-force                    non-local-force                 convergence-correction
 -----------------------------------------------------------------------------------------------
   -.378E+01 0.219E-01 -.464E+00   0.388E+01 0.647E-14 0.490E+00   0.134E+01 -.242E+00 0.285E-01   -.147E+01 0.521E-01 -.156E+00
   0.378E+01 -.219E-01 0.464E+00   -.388E+01 -.689E-14 -.490E+00   -.134E+01 0.242E+00 -.285E-01   0.147E+01 -.521E-01 0.156E+00
   0.109E-05 0.644E-06 0.269E-05   -.568E-13 -.288E-14 -.355E-14   -.408E-06 0.134E-05 -.489E-05   -.234E-06 -.485E-06 0.473E-06
   0.226E+02 0.535E-01 0.289E+01   -.256E+02 0.394E-14 -.323E+01   0.258E+01 -.771E+00 -.124E+00   0.781E+00 0.170E+00 0.197E+00
   -.226E+02 -.535E-01 -.289E+01   0.256E+02 -.408E-14 0.323E+01   -.258E+01 0.771E+00 0.124E+00   -.781E+00 -.170E+00 -.197E+00
 -----------------------------------------------------------------------------------------------
   0.477E-05 0.813E-05 -.331E-05   -.142E-13 -.345E-14 -.444E-15   -.374E-05 -.610E-05 0.922E-06   -.581E-06 -.135E-05 0.174E-05


 POSITION                                       TOTAL-FORCE (eV/Angst)
 -----------------------------------------------------------------------------------
     12.06838      0.00000      1.52291        -0.008200     -0.167763     -0.098505
     18.11779      0.00000      2.28628         0.008200      0.167760      0.098510
      0.00000      0.00000      0.00000         0.000000      0.000001     -0.000002
      6.35376      0.00000      0.80178         0.376210     -0.547236     -0.270804
     23.83241      0.00000      3.00741        -0.376210      0.547238      0.270800
 -----------------------------------------------------------------------------------
    total drift:                                0.000000      0.000001     -0.000001


--------------------------------------------------------------------------------------------------------



  FREE ENERGIE OF THE ION-ELECTRON SYSTEM (eV)
  ---------------------------------------------------
  free  energy   TOTEN  =       -12.08523692 eV

  energy  without entropy=      -12.08523692  energy(sigma->0) =      -12.08523692



--------------------------------------------------------------------------------------------------------


    POTLOK:  cpu time   19.1740: real time   19.8609


--------------------------------------------------------------------------------------------------------


     LOOP+:  cpu time 6559.2420: real time 6653.7849
    4ORBIT:  cpu time    0.0000: real time    0.0000

 Spin-Orbit-Coupling matrix elements

 Ion:    1  E_soc:     -1.0379429
 l=   1
     0.0000000    -0.1759811    -0.1706529
    -0.1759811     0.0000000    -0.1674123
    -0.1706529    -0.1674123     0.0000000
 l=   2
     0.0000000    -0.0003318     0.0000000    -0.0004189    -0.0008336
    -0.0003318     0.0000000    -0.0011189    -0.0005211    -0.0002888
     0.0000000    -0.0011189     0.0000000    -0.0010224     0.0000000
    -0.0004189    -0.0005211    -0.0010224     0.0000000    -0.0003897
    -0.0008336    -0.0002888     0.0000000    -0.0003897     0.0000000
 l=   3
     0.0000000     0.0000000     0.0000000     0.0000000     0.0000000     0.0000000     0.0000000
     0.0000000     0.0000000     0.0000000     0.0000000     0.0000000     0.0000000     0.0000000
     0.0000000     0.0000000     0.0000000     0.0000000     0.0000000     0.0000000     0.0000000
     0.0000000     0.0000000     0.0000000     0.0000000     0.0000000     0.0000000     0.0000000
     0.0000000     0.0000000     0.0000000     0.0000000     0.0000000     0.0000000     0.0000000
     0.0000000     0.0000000     0.0000000     0.0000000     0.0000000     0.0000000     0.0000000
     0.0000000     0.0000000     0.0000000     0.0000000     0.0000000     0.0000000     0.0000000

 Ion:    2  E_soc:     -1.0379429
 l=   1
     0.0000000    -0.1759811    -0.1706530
    -0.1759811     0.0000000    -0.1674121
    -0.1706530    -0.1674121     0.0000000
 l=   2
     0.0000000    -0.0003318     0.0000000    -0.0004189    -0.0008336
    -0.0003318     0.0000000    -0.0011189    -0.0005211    -0.0002888
     0.0000000    -0.0011189     0.0000000    -0.0010224     0.0000000
    -0.0004189    -0.0005211    -0.0010224     0.0000000    -0.0003897
    -0.0008336    -0.0002888     0.0000000    -0.0003897     0.0000000
 l=   3
     0.0000000     0.0000000     0.0000000     0.0000000     0.0000000     0.0000000     0.0000000
     0.0000000     0.0000000     0.0000000     0.0000000     0.0000000     0.0000000     0.0000000
     0.0000000     0.0000000     0.0000000     0.0000000     0.0000000     0.0000000     0.0000000
     0.0000000     0.0000000     0.0000000     0.0000000     0.0000000     0.0000000     0.0000000
     0.0000000     0.0000000     0.0000000     0.0000000     0.0000000     0.0000000     0.0000000
     0.0000000     0.0000000     0.0000000     0.0000000     0.0000000     0.0000000     0.0000000
     0.0000000     0.0000000     0.0000000     0.0000000     0.0000000     0.0000000     0.0000000

 Ion:    3  E_soc:     -0.2071702
 l=   1
     0.0000000    -0.0370050    -0.0348526
    -0.0370050     0.0000000    -0.0318125
    -0.0348526    -0.0318125     0.0000000
 l=   2
     0.0000000     0.0000038     0.0000000    -0.0000437     0.0000120
     0.0000038     0.0000000     0.0000193     0.0000250     0.0000383
     0.0000000     0.0000193     0.0000000     0.0000197     0.0000000
    -0.0000437     0.0000250     0.0000197     0.0000000     0.0000104
     0.0000120     0.0000383     0.0000000     0.0000104     0.0000000
 l=   3
     0.0000000     0.0000000     0.0000000     0.0000000     0.0000000     0.0000000     0.0000000
     0.0000000     0.0000000     0.0000000     0.0000000     0.0000000     0.0000000     0.0000000
     0.0000000     0.0000000     0.0000000     0.0000000     0.0000000     0.0000000     0.0000000
     0.0000000     0.0000000     0.0000000     0.0000000     0.0000000     0.0000000     0.0000000
     0.0000000     0.0000000     0.0000000     0.0000000     0.0000000     0.0000000     0.0000000
     0.0000000     0.0000000     0.0000000     0.0000000     0.0000000     0.0000000     0.0000000
     0.0000000     0.0000000     0.0000000     0.0000000     0.0000000     0.0000000     0.0000000

 Ion:    4  E_soc:     -0.2326236
 l=   1
     0.0000000    -0.0393367    -0.0437583
    -0.0393367     0.0000000    -0.0332497
    -0.0437583    -0.0332497     0.0000000
 l=   2
     0.0000000    -0.0000046     0.0000000    -0.0000181    -0.0000127
    -0.0000046     0.0000000     0.0000261     0.0000061     0.0000206
     0.0000000     0.0000261     0.0000000    -0.0000024     0.0000000
    -0.0000181     0.0000061    -0.0000024     0.0000000     0.0000179
    -0.0000127     0.0000206     0.0000000     0.0000179     0.0000000
 l=   3
     0.0000000     0.0000000     0.0000000     0.0000000     0.0000000     0.0000000     0.0000000
     0.0000000     0.0000000     0.0000000     0.0000000     0.0000000     0.0000000     0.0000000
     0.0000000     0.0000000     0.0000000     0.0000000     0.0000000     0.0000000     0.0000000
     0.0000000     0.0000000     0.0000000     0.0000000     0.0000000     0.0000000     0.0000000
     0.0000000     0.0000000     0.0000000     0.0000000     0.0000000     0.0000000     0.0000000
     0.0000000     0.0000000     0.0000000     0.0000000     0.0000000     0.0000000     0.0000000
     0.0000000     0.0000000     0.0000000     0.0000000     0.0000000     0.0000000     0.0000000

 Ion:    5  E_soc:     -0.2326235
 l=   1
     0.0000000    -0.0393367    -0.0437584
    -0.0393367     0.0000000    -0.0332496
    -0.0437584    -0.0332496     0.0000000
 l=   2
     0.0000000    -0.0000046     0.0000000    -0.0000181    -0.0000127
    -0.0000046     0.0000000     0.0000261     0.0000061     0.0000206
     0.0000000     0.0000261     0.0000000    -0.0000024     0.0000000
    -0.0000181     0.0000061    -0.0000024     0.0000000     0.0000179
    -0.0000127     0.0000206     0.0000000     0.0000179     0.0000000
 l=   3
     0.0000000     0.0000000     0.0000000     0.0000000     0.0000000     0.0000000     0.0000000
     0.0000000     0.0000000     0.0000000     0.0000000     0.0000000     0.0000000     0.0000000
     0.0000000     0.0000000     0.0000000     0.0000000     0.0000000     0.0000000     0.0000000
     0.0000000     0.0000000     0.0000000     0.0000000     0.0000000     0.0000000     0.0000000
     0.0000000     0.0000000     0.0000000     0.0000000     0.0000000     0.0000000     0.0000000
     0.0000000     0.0000000     0.0000000     0.0000000     0.0000000     0.0000000     0.0000000
     0.0000000     0.0000000     0.0000000     0.0000000     0.0000000     0.0000000     0.0000000

 total amount of memory used by VASP MPI-rank0   804901. kBytes
=======================================================================

   base      :      30000. kBytes
   nonl-proj :      36720. kBytes
   fftplans  :     182230. kBytes
   grid      :     180182. kBytes
   one-center:         97. kBytes
   wavefun   :     375672. kBytes

  
  
 General timing and accounting informations for this job:
 ========================================================
  
                  Total CPU time used (sec):     6624.292
                            User time (sec):     6369.022
                          System time (sec):      255.270
                         Elapsed time (sec):     6719.852
  
                   Maximum memory used (kb):     1146260.
                   Average memory used (kb):           0.
  
                          Minor page faults:      6200976
                          Major page faults:            0
                 Voluntary context switches:         4588
