<?xml version="1.0" encoding="ISO-8859-1"?>
<modeling>
 <generator>
  <i name="program" type="string">vasp </i>
  <i name="version" type="string">5.4.4.18Apr17-6-g9f103f2a35  </i>
  <i name="subversion" type="string">(build Mar 20 2018 18:07:30) complex            parallel </i>
  <i name="platform" type="string">LinuxGNU </i>
  <i name="date" type="string">2020 07 06 </i>
  <i name="time" type="string">22:41:11 </i>
 </generator>
 <incar>
  <i type="string" name="SYSTEM"> BiTe</i>
  <i type="int" name="ISTART">     1</i>
  <i type="string" name="PREC">accurate</i>
  <i type="string" name="ALGO"> A</i>
  <i type="logical" name="ADDGRID"> T  </i>
  <i type="logical" name="LSORBIT"> T  </i>
  <i type="int" name="ISPIN">     1</i>
  <i type="int" name="ICHARG">    11</i>
  <i type="int" name="IBRION">    -1</i>
  <i name="EDIFF">      0.00000010</i>
  <i name="EDIFFG">     -0.00100000</i>
  <i type="int" name="NSW">     0</i>
  <i type="int" name="ISYM">    -1</i>
  <i name="ENCUT">    600.00000000</i>
  <i type="int" name="NBANDS">    88</i>
  <i type="logical" name="LREAL"> F  </i>
  <i type="logical" name="LPLANE"> T  </i>
  <i type="int" name="ISMEAR">     0</i>
  <i name="SIGMA">      0.01000000</i>
  <i type="int" name="LMAXMIX">     4</i>
  <i type="logical" name="LWAVE"> F  </i>
  <i type="logical" name="LCHARG"> F  </i>
  <i type="logical" name="GGA_COMPAT"> F  </i>
  <v type="int" name="KPOINT_BSE">    -1     0     0     0</v>
 </incar>
 <structure name="primitive_cell" >
  <crystal>
   <varray name="basis" >
    <v>      10.22228271      -2.21667734       0.00000000 </v>
    <v>      10.22228271       2.21667734       0.00000000 </v>
    <v>       9.74160157       0.00000000       3.80918902 </v>
   </varray>
   <i name="volume">    172.62865583 </i>
   <varray name="rec_basis" >
    <v>       0.04891275      -0.22556282      -0.12508924 </v>
    <v>       0.04891275       0.22556282      -0.12508924 </v>
    <v>      -0.00000000       0.00000000       0.26252307 </v>
   </varray>
  </crystal>
  <varray name="positions" >
   <v>       0.39979833       0.39979833       0.39979833 </v>
   <v>      -0.21048582      -0.21048582      -0.21048582 </v>
   <v>       0.00000000       0.00000000       0.00000000 </v>
   <v>      -0.39979833      -0.39979833      -0.39979833 </v>
   <v>       0.21048582       0.21048582       0.21048582 </v>
  </varray>
 </structure>
 <varray name="primitive_index" >
  <v type="int" >        1 </v>
  <v type="int" >        5 </v>
  <v type="int" >        3 </v>
  <v type="int" >        2 </v>
  <v type="int" >        4 </v>
 </varray>
 <kpoints>
  <varray name="kpointlist" >
   <v>       0.51255300       0.32497400       0.32497400 </v>
   <v>       0.45106408       0.26348508       0.26637646 </v>
   <v>       0.48180854       0.29422954       0.29567523 </v>
   <v>       0.54329746       0.35571846       0.35427277 </v>
   <v>       0.57404192       0.38646292       0.38357154 </v>
   <v>       0.52588672       0.31164028       0.32497400 </v>
   <v>       0.51921986       0.31830714       0.32497400 </v>
   <v>       0.50588614       0.33164086       0.32497400 </v>
   <v>       0.49921928       0.33830772       0.32497400 </v>
   <v>       0.51255300       0.32497400       0.30206102 </v>
   <v>       0.51255300       0.32497400       0.31351751 </v>
   <v>       0.51255300       0.32497400       0.33643049 </v>
   <v>       0.51255300       0.32497400       0.34788698 </v>
   <v>       0.46439780       0.25015135       0.26637646 </v>
   <v>       0.49514226       0.28089581       0.29567523 </v>
   <v>       0.55663119       0.34238474       0.35427277 </v>
   <v>       0.58737565       0.37312920       0.38357154 </v>
   <v>       0.45773094       0.25681822       0.26637646 </v>
   <v>       0.48847540       0.28756268       0.29567523 </v>
   <v>       0.54996432       0.34905160       0.35427277 </v>
   <v>       0.58070878       0.37979606       0.38357154 </v>
   <v>       0.44439722       0.27015194       0.26637646 </v>
   <v>       0.47514168       0.30089640       0.29567523 </v>
   <v>       0.53663060       0.36238532       0.35427277 </v>
   <v>       0.56737506       0.39312978       0.38357154 </v>
   <v>       0.43773035       0.27681880       0.26637646 </v>
   <v>       0.46847481       0.30756326       0.29567523 </v>
   <v>       0.52996374       0.36905219       0.35427277 </v>
   <v>       0.56070820       0.39979665       0.38357154 </v>
   <v>       0.45106408       0.26348508       0.24346349 </v>
   <v>       0.48180854       0.29422954       0.27276225 </v>
   <v>       0.54329746       0.35571846       0.33135979 </v>
   <v>       0.57404192       0.38646292       0.36065856 </v>
   <v>       0.45106408       0.26348508       0.25491998 </v>
   <v>       0.48180854       0.29422954       0.28421874 </v>
   <v>       0.54329746       0.35571846       0.34281628 </v>
   <v>       0.57404192       0.38646292       0.37211505 </v>
   <v>       0.45106408       0.26348508       0.27783295 </v>
   <v>       0.48180854       0.29422954       0.30713172 </v>
   <v>       0.54329746       0.35571846       0.36572926 </v>
   <v>       0.57404192       0.38646292       0.39502802 </v>
   <v>       0.45106408       0.26348508       0.28928944 </v>
   <v>       0.48180854       0.29422954       0.31858821 </v>
   <v>       0.54329746       0.35571846       0.37718575 </v>
   <v>       0.57404192       0.38646292       0.40648451 </v>
   <v>       0.52588672       0.31164028       0.30206102 </v>
   <v>       0.51921986       0.31830714       0.30206102 </v>
   <v>       0.50588614       0.33164086       0.30206102 </v>
   <v>       0.49921928       0.33830772       0.30206102 </v>
   <v>       0.52588672       0.31164028       0.31351751 </v>
   <v>       0.51921986       0.31830714       0.31351751 </v>
   <v>       0.50588614       0.33164086       0.31351751 </v>
   <v>       0.49921928       0.33830772       0.31351751 </v>
   <v>       0.52588672       0.31164028       0.33643049 </v>
   <v>       0.51921986       0.31830714       0.33643049 </v>
   <v>       0.50588614       0.33164086       0.33643049 </v>
   <v>       0.49921928       0.33830772       0.33643049 </v>
   <v>       0.52588672       0.31164028       0.34788698 </v>
   <v>       0.51921986       0.31830714       0.34788698 </v>
   <v>       0.50588614       0.33164086       0.34788698 </v>
   <v>       0.49921928       0.33830772       0.34788698 </v>
  </varray>
  <varray name="weights" >
   <v>       0.01639344 </v>
   <v>       0.01639344 </v>
   <v>       0.01639344 </v>
   <v>       0.01639344 </v>
   <v>       0.01639344 </v>
   <v>       0.01639344 </v>
   <v>       0.01639344 </v>
   <v>       0.01639344 </v>
   <v>       0.01639344 </v>
   <v>       0.01639344 </v>
   <v>       0.01639344 </v>
   <v>       0.01639344 </v>
   <v>       0.01639344 </v>
   <v>       0.01639344 </v>
   <v>       0.01639344 </v>
   <v>       0.01639344 </v>
   <v>       0.01639344 </v>
   <v>       0.01639344 </v>
   <v>       0.01639344 </v>
   <v>       0.01639344 </v>
   <v>       0.01639344 </v>
   <v>       0.01639344 </v>
   <v>       0.01639344 </v>
   <v>       0.01639344 </v>
   <v>       0.01639344 </v>
   <v>       0.01639344 </v>
   <v>       0.01639344 </v>
   <v>       0.01639344 </v>
   <v>       0.01639344 </v>
   <v>       0.01639344 </v>
   <v>       0.01639344 </v>
   <v>       0.01639344 </v>
   <v>       0.01639344 </v>
   <v>       0.01639344 </v>
   <v>       0.01639344 </v>
   <v>       0.01639344 </v>
   <v>       0.01639344 </v>
   <v>       0.01639344 </v>
   <v>       0.01639344 </v>
   <v>       0.01639344 </v>
   <v>       0.01639344 </v>
   <v>       0.01639344 </v>
   <v>       0.01639344 </v>
   <v>       0.01639344 </v>
   <v>       0.01639344 </v>
   <v>       0.01639344 </v>
   <v>       0.01639344 </v>
   <v>       0.01639344 </v>
   <v>       0.01639344 </v>
   <v>       0.01639344 </v>
   <v>       0.01639344 </v>
   <v>       0.01639344 </v>
   <v>       0.01639344 </v>
   <v>       0.01639344 </v>
   <v>       0.01639344 </v>
   <v>       0.01639344 </v>
   <v>       0.01639344 </v>
   <v>       0.01639344 </v>
   <v>       0.01639344 </v>
   <v>       0.01639344 </v>
   <v>       0.01639344 </v>
  </varray>
 </kpoints>
 <parameters>
  <separator name="general" >
   <i type="string" name="SYSTEM">BiTe</i>
   <i type="logical" name="LCOMPAT"> F  </i>
  </separator>
  <separator name="electronic" >
   <i type="string" name="PREC">accura</i>
   <i name="ENMAX">    600.00000000</i>
   <i name="ENAUG">    368.79200000</i>
   <i name="EDIFF">      0.00000010</i>
   <i type="int" name="IALGO">    58</i>
   <i type="int" name="IWAVPR">    10</i>
   <i type="int" name="NBANDS">    88</i>
   <i name="NELECT">     28.00000000</i>
   <i type="int" name="TURBO">     0</i>
   <i type="int" name="IRESTART">     0</i>
   <i type="int" name="NREBOOT">     0</i>
   <i type="int" name="NMIN">     0</i>
   <i name="EREF">      0.00000000</i>
   <separator name="electronic smearing" >
    <i type="int" name="ISMEAR">     0</i>
    <i name="SIGMA">      0.01000000</i>
    <i name="KSPACING">      0.50000000</i>
    <i type="logical" name="KGAMMA"> T  </i>
   </separator>
   <separator name="electronic projectors" >
    <i type="logical" name="LREAL"> F  </i>
    <v name="ROPT">      0.00000000      0.00000000</v>
    <i type="int" name="LMAXPAW">  -100</i>
    <i type="int" name="LMAXMIX">     4</i>
    <i type="logical" name="NLSPLINE"> F  </i>
   </separator>
   <separator name="electronic startup" >
    <i type="int" name="ISTART">     0</i>
    <i type="int" name="ICHARG">    11</i>
    <i type="int" name="INIWAV">     1</i>
   </separator>
   <separator name="electronic spin" >
    <i type="int" name="ISPIN">     1</i>
    <i type="logical" name="LNONCOLLINEAR"> T  </i>
    <v name="MAGMOM">      1.00000000      1.00000000      1.00000000      1.00000000      1.00000000      1.00000000      1.00000000      1.00000000      1.00000000      1.00000000      1.00000000      1.00000000      1.00000000      1.00000000      1.00000000</v>
    <i name="NUPDOWN">     -1.00000000</i>
    <i type="logical" name="LSORBIT"> T  </i>
    <v name="SAXIS">      0.00000000      0.00000000      1.00000000</v>
    <i type="logical" name="LSPIRAL"> F  </i>
    <v name="QSPIRAL">      0.00000000      0.00000000      0.00000000</v>
    <i type="logical" name="LZEROZ"> F  </i>
   </separator>
   <separator name="electronic exchange-correlation" >
    <i type="logical" name="LASPH"> F  </i>
    <i type="logical" name="LMETAGGA"> F  </i>
   </separator>
   <separator name="electronic convergence" >
    <i type="int" name="NELM">    60</i>
    <i type="int" name="NELMDL">     0</i>
    <i type="int" name="NELMIN">     2</i>
    <i name="ENINI">    600.00000000</i>
    <separator name="electronic convergence detail" >
     <i type="logical" name="LDIAG"> T  </i>
     <i type="logical" name="LSUBROT"> F  </i>
     <i name="WEIMIN">      0.00000000</i>
     <i name="EBREAK">      0.00000000</i>
     <i name="DEPER">      0.30000000</i>
     <i type="int" name="NRMM">     4</i>
     <i name="TIME">      0.40000000</i>
    </separator>
   </separator>
   <separator name="electronic mixer" >
    <i name="AMIX">      0.40000000</i>
    <i name="BMIX">      1.00000000</i>
    <i name="AMIN">      0.10000000</i>
    <i name="AMIX_MAG">      1.60000000</i>
    <i name="BMIX_MAG">      1.00000000</i>
    <separator name="electronic mixer details" >
     <i type="int" name="IMIX">     4</i>
     <i type="logical" name="MIXFIRST"> F  </i>
     <i type="int" name="MAXMIX">   -45</i>
     <i name="WC">    100.00000000</i>
     <i type="int" name="INIMIX">     1</i>
     <i type="int" name="MIXPRE">     1</i>
     <i type="int" name="MREMOVE">     5</i>
    </separator>
   </separator>
   <separator name="electronic dipolcorrection" >
    <i type="logical" name="LDIPOL"> F  </i>
    <i type="logical" name="LMONO"> F  </i>
    <i type="int" name="IDIPOL">     0</i>
    <i name="EPSILON">      1.00000000</i>
    <v name="DIPOL">   -100.00000000   -100.00000000   -100.00000000</v>
    <i name="EFIELD">      0.00000000</i>
   </separator>
  </separator>
  <separator name="grids" >
   <i type="int" name="NGX">    84</i>
   <i type="int" name="NGY">    84</i>
   <i type="int" name="NGZ">    84</i>
   <i type="int" name="NGXF">   168</i>
   <i type="int" name="NGYF">   168</i>
   <i type="int" name="NGZF">   168</i>
   <i type="logical" name="ADDGRID"> T  </i>
  </separator>
  <separator name="ionic" >
   <i type="int" name="NSW">     0</i>
   <i type="int" name="IBRION">    -1</i>
   <i type="int" name="MDALGO">     0</i>
   <i type="int" name="ISIF">     2</i>
   <i name="PSTRESS">      0.00000000</i>
   <i name="EDIFFG">     -0.00100000</i>
   <i type="int" name="NFREE">     0</i>
   <i name="POTIM">      0.50000000</i>
   <i name="SMASS">     -3.00000000</i>
   <i name="SCALEE">      1.00000000</i>
  </separator>
  <separator name="ionic md" >
   <i name="TEBEG">      0.00010000</i>
   <i name="TEEND">      0.00010000</i>
   <i type="int" name="NBLOCK">     1</i>
   <i type="int" name="KBLOCK">     1</i>
   <i type="int" name="NPACO">   256</i>
   <i name="APACO">     16.00000000</i>
  </separator>
  <separator name="symmetry" >
   <i type="int" name="ISYM">    -1</i>
   <i name="SYMPREC">      0.00001000</i>
  </separator>
  <separator name="dos" >
   <i type="int" name="LORBIT">     0</i>
   <v name="RWIGS">     -1.00000000     -1.00000000</v>
   <i type="int" name="NEDOS">   301</i>
   <i name="EMIN">     10.00000000</i>
   <i name="EMAX">    -10.00000000</i>
   <i name="EFERMI">      0.00000000</i>
  </separator>
  <separator name="writing" >
   <i type="int" name="NWRITE">     2</i>
   <i type="logical" name="LWAVE"> F  </i>
   <i type="logical" name="LDOWNSAMPLE"> F  </i>
   <i type="logical" name="LCHARG"> F  </i>
   <i type="logical" name="LPARD"> F  </i>
   <i type="logical" name="LVTOT"> F  </i>
   <i type="logical" name="LVHAR"> F  </i>
   <i type="logical" name="LELF"> F  </i>
   <i type="logical" name="LOPTICS"> F  </i>
   <v name="STM">      0.00000000      0.00000000      0.00000000      0.00000000      0.00000000      0.00000000      0.00000000</v>
  </separator>
  <separator name="performance" >
   <i type="int" name="NPAR">     4</i>
   <i type="int" name="NSIM">     4</i>
   <i type="int" name="NBLK">    -1</i>
   <i type="logical" name="LPLANE"> T  </i>
   <i type="logical" name="LSCALAPACK"> T  </i>
   <i type="logical" name="LSCAAWARE"> F  </i>
   <i type="logical" name="LSCALU"> F  </i>
   <i type="logical" name="LASYNC"> F  </i>
   <i type="logical" name="LORBITALREAL"> F  </i>
  </separator>
  <separator name="miscellaneous" >
   <i type="int" name="IDIOT">     3</i>
   <i type="int" name="ISPECIAL">     0</i>
   <i type="logical" name="LMUSIC"> F  </i>
   <v name="POMASS">    208.98000000    127.60000000</v>
   <v name="DARWINR">      0.00000000      0.00000000</v>
   <v name="DARWINV">      1.00000000      1.00000000</v>
   <i type="logical" name="LCORR"> T  </i>
  </separator>
  <i type="logical" name="GGA_COMPAT"> F  </i>
  <i type="logical" name="LBERRY"> F  </i>
  <i type="int" name="ICORELEVEL">     0</i>
  <i type="logical" name="LDAU"> F  </i>
  <i type="int" name="I_CONSTRAINED_M">     0</i>
  <separator name="electronic exchange-correlation" >
   <i type="string" name="GGA">--</i>
   <i type="int" name="VOSKOWN">     0</i>
   <i type="logical" name="LHFCALC"> F  </i>
   <i type="string" name="PRECFOCK"></i>
   <i type="logical" name="LSYMGRAD"> F  </i>
   <i type="logical" name="LHFONE"> F  </i>
   <i type="logical" name="LRHFCALC"> F  </i>
   <i type="logical" name="LTHOMAS"> F  </i>
   <i type="logical" name="LMODELHF"> F  </i>
   <i name="ENCUT4O">     -1.00000000</i>
   <i type="int" name="EXXOEP">     0</i>
   <i type="int" name="FOURORBIT">     0</i>
   <i name="AEXX">      0.00000000</i>
   <i name="HFALPHA">      0.00000000</i>
   <i name="MCALPHA">      0.00000000</i>
   <i name="ALDAX">      1.00000000</i>
   <i name="AGGAX">      1.00000000</i>
   <i name="ALDAC">      1.00000000</i>
   <i name="AGGAC">      1.00000000</i>
   <i type="int" name="NKREDX">     1</i>
   <i type="int" name="NKREDY">     1</i>
   <i type="int" name="NKREDZ">     1</i>
   <i type="logical" name="SHIFTRED"> F  </i>
   <i type="logical" name="ODDONLY"> F  </i>
   <i type="logical" name="EVENONLY"> F  </i>
   <i type="int" name="LMAXFOCK">     0</i>
   <i type="int" name="NMAXFOCKAE">     0</i>
   <i type="logical" name="LFOCKAEDFT"> F  </i>
   <i name="HFSCREEN">      0.00000000</i>
   <i name="HFSCREENC">      0.00000000</i>
   <i type="int" name="NBANDSGWLOW">     0</i>
  </separator>
  <separator name="vdW DFT" >
   <i type="logical" name="LUSE_VDW"> F  </i>
   <i name="Zab_VDW">     -0.84910000</i>
   <i name="PARAM1">      0.12340000</i>
   <i name="PARAM2">      1.00000000</i>
   <i name="PARAM3">      0.00000000</i>
  </separator>
  <separator name="model GW" >
   <i type="int" name="MODEL_GW">     0</i>
   <i name="MODEL_EPS0">     20.71543870</i>
   <i name="MODEL_ALPHA">      1.00000000</i>
  </separator>
  <separator name="linear response parameters" >
   <i type="logical" name="LEPSILON"> F  </i>
   <i type="logical" name="LRPA"> F  </i>
   <i type="logical" name="LNABLA"> F  </i>
   <i type="logical" name="LVEL"> F  </i>
   <i type="int" name="KINTER">     0</i>
   <i name="CSHIFT">      0.10000000</i>
   <i name="OMEGAMAX">     -1.00000000</i>
   <i name="DEG_THRESHOLD">      0.00200000</i>
   <i name="RTIME">     -0.10000000</i>
   <i name="WPLASMAI">      0.00000000</i>
   <v name="DFIELD">      0.00000000      0.00000000      0.00000000</v>
   <v name="WPLASMA">      0.00000000      0.00000000      0.00000000      0.00000000      0.00000000      0.00000000      0.00000000      0.00000000      0.00000000</v>
  </separator>
  <separator name="orbital magnetization" >
   <i type="logical" name="NUCIND"> F  </i>
   <v name="MAGPOS">      0.00000000      0.00000000      0.00000000</v>
   <i type="logical" name="LNICSALL"> T  </i>
   <i type="logical" name="ORBITALMAG"> F  </i>
   <i type="logical" name="LMAGBLOCH"> F  </i>
   <i type="logical" name="LCHIMAG"> F  </i>
   <i type="logical" name="LGAUGE"> T  </i>
   <i type="int" name="MAGATOM">     0</i>
   <v name="MAGDIPOL">      0.00000000      0.00000000      0.00000000</v>
   <v name="AVECCONST">      0.00000000      0.00000000      0.00000000</v>
  </separator>
  <separator name="response functions" >
   <i type="logical" name="LADDER"> F  </i>
   <i type="logical" name="LRPAFORCE"> F  </i>
   <i type="logical" name="LFXC"> F  </i>
   <i type="logical" name="LHARTREE"> T  </i>
   <i type="int" name="IBSE">     0</i>
   <v type="int" name="KPOINT">    -1     0     0     0</v>
   <i type="logical" name="LTCTE"> F  </i>
   <i type="logical" name="LTETE"> F  </i>
   <i type="logical" name="LTRIPLET"> F  </i>
   <i type="logical" name="LFXCEPS"> F  </i>
   <i type="logical" name="LFXHEG"> F  </i>
   <i type="int" name="NATURALO">     2</i>
   <i type="logical" name="L2ORDER"> F  </i>
   <i type="logical" name="LMP2LT"> F  </i>
   <i type="logical" name="LUSEW"> F  </i>
   <i name="ENCUTGW">     -2.00000000</i>
   <i name="ENCUTGWSOFT">     -2.00000000</i>
   <i name="ENCUTLF">     -1.00000000</i>
   <i type="int" name="LMAXMP2">    -1</i>
   <i name="SCISSOR">      0.00000000</i>
   <i type="int" name="NOMEGA">     0</i>
   <i type="int" name="NOMEGAR">     0</i>
   <i type="int" name="NBANDSGW">    -1</i>
   <i type="int" name="NBANDSO">    -1</i>
   <i type="int" name="NBANDSV">    -1</i>
   <i type="int" name="NELM">     1</i>
   <i type="int" name="NELMHF">     1</i>
   <i type="int" name="DIM">     3</i>
   <i type="int" name="ANTIRES">     0</i>
   <i name="OMEGAMAX">    -30.00000000</i>
   <i name="OMEGAMIN">    -30.00000000</i>
   <i name="OMEGATL">   -200.00000000</i>
   <i type="int" name="OMEGAGRID">   140</i>
   <i name="CSHIFT">     -0.10000000</i>
   <i type="logical" name="SELFENERGY"> F  </i>
   <i type="logical" name="LSPECTRAL"> F  </i>
   <i type="logical" name="LSPECTRALGW"> F  </i>
   <i type="logical" name="LSINGLES"> F  </i>
   <i type="logical" name="LFERMIGW"> F  </i>
   <i type="logical" name="ODDONLYGW"> F  </i>
   <i type="logical" name="EVENONLYGW"> F  </i>
   <i type="int" name="NKREDLFX">     1</i>
   <i type="int" name="NKREDLFY">     1</i>
   <i type="int" name="NKREDLFZ">     1</i>
   <i type="int" name="MAXMEM">  2800</i>
   <i type="int" name="TELESCOPE">     0</i>
   <i type="int" name="TAUPAR">     1</i>
   <i type="int" name="OMEGAPAR">    -1</i>
   <i name="LAMBDA">      1.00000000</i>
  </separator>
  <separator name="External order field" >
   <i name="OFIELD_KAPPA">      0.00000000</i>
   <v name="OFIELD_K">      0.00000000      0.00000000      0.00000000</v>
   <i name="OFIELD_Q6_NEAR">      0.00000000</i>
   <i name="OFIELD_Q6_FAR">      0.00000000</i>
   <i name="OFIELD_A">      0.00000000</i>
  </separator>
 </parameters>
 <atominfo>
  <atoms>       5 </atoms>
  <types>       2 </types>
  <array name="atoms" >
   <dimension dim="1">ion</dimension>
   <field type="string">element</field>
   <field type="int">atomtype</field>
   <set>
    <rc><c>Bi</c><c>   1</c></rc>
    <rc><c>Bi</c><c>   1</c></rc>
    <rc><c>Te</c><c>   2</c></rc>
    <rc><c>Te</c><c>   2</c></rc>
    <rc><c>Te</c><c>   2</c></rc>
   </set>
  </array>
  <array name="atomtypes" >
   <dimension dim="1">type</dimension>
   <field type="int">atomspertype</field>
   <field type="string">element</field>
   <field>mass</field>
   <field>valence</field>
   <field type="string">pseudopotential</field>
   <set>
    <rc><c>   2</c><c>Bi</c><c>    208.98000000</c><c>      5.00000000</c><c>  PAW_PBE Bi 08Apr2002                  </c></rc>
    <rc><c>   3</c><c>Te</c><c>    127.60000000</c><c>      6.00000000</c><c>  PAW_PBE Te 08Apr2002                  </c></rc>
   </set>
  </array>
 </atominfo>
 <structure name="initialpos" >
  <crystal>
   <varray name="basis" >
    <v>      10.22228271      -2.21667734       0.00000000 </v>
    <v>      10.22228271       2.21667734       0.00000000 </v>
    <v>       9.74160157       0.00000000       3.80918902 </v>
   </varray>
   <i name="volume">    172.62865583 </i>
   <varray name="rec_basis" >
    <v>       0.04891275      -0.22556282      -0.12508924 </v>
    <v>       0.04891275       0.22556282      -0.12508924 </v>
    <v>      -0.00000000       0.00000000       0.26252307 </v>
   </varray>
  </crystal>
  <varray name="positions" >
   <v>       0.39979833       0.39979833       0.39979833 </v>
   <v>       0.60020167       0.60020167       0.60020167 </v>
   <v>       0.00000000       0.00000000       0.00000000 </v>
   <v>       0.21048582       0.21048582       0.21048582 </v>
   <v>       0.78951418       0.78951418       0.78951418 </v>
  </varray>
 </structure>
 <calculation>
  <scstep>
   <time name="total">  885.82  897.82</time>
   <energy>
    <i name="alphaZ">      5.99831677 </i>
    <i name="ewald">   -983.58522533 </i>
    <i name="hartreedc">    -59.98562904 </i>
    <i name="XCdc">   -303.85049003 </i>
    <i name="pawpsdc">   1910.19755357 </i>
    <i name="pawaedc">  -1561.17602897 </i>
    <i name="eentropy">     -0.00024812 </i>
    <i name="bandstr">    149.71211940 </i>
    <i name="atom">    971.44149227 </i>
    <i name="e_fr_energy">    128.75186053 </i>
    <i name="e_wo_entrp">    128.75210865 </i>
    <i name="e_0_energy">    128.75198459 </i>
   </energy>
  </scstep>
  <scstep>
   <time name="total">  715.10  722.96</time>
   <energy>
    <i name="e_fr_energy">      1.17189787 </i>
    <i name="e_wo_entrp">      1.17189870 </i>
    <i name="e_0_energy">      1.17189828 </i>
   </energy>
  </scstep>
  <scstep>
   <time name="total">  534.06  537.28</time>
   <energy>
    <i name="e_fr_energy">    -10.32437141 </i>
    <i name="e_wo_entrp">    -10.32437141 </i>
    <i name="e_0_energy">    -10.32437141 </i>
   </energy>
  </scstep>
  <scstep>
   <time name="total">  603.37  616.19</time>
   <energy>
    <i name="e_fr_energy">    -10.63934351 </i>
    <i name="e_wo_entrp">    -10.63934351 </i>
    <i name="e_0_energy">    -10.63934351 </i>
   </energy>
  </scstep>
  <scstep>
   <time name="total">  814.45  828.24</time>
   <energy>
    <i name="e_fr_energy">    -10.64492569 </i>
    <i name="e_wo_entrp">    -10.64492569 </i>
    <i name="e_0_energy">    -10.64492569 </i>
   </energy>
  </scstep>
  <scstep>
   <time name="total">  557.64  569.66</time>
   <energy>
    <i name="e_fr_energy">    -10.64492569 </i>
    <i name="e_wo_entrp">    -10.64492569 </i>
    <i name="e_0_energy">    -10.64492569 </i>
   </energy>
  </scstep>
  <scstep>
   <time name="total">  445.09  446.50</time>
   <energy>
    <i name="e_fr_energy">    -10.64511260 </i>
    <i name="e_wo_entrp">    -10.64511260 </i>
    <i name="e_0_energy">    -10.64511260 </i>
   </energy>
  </scstep>
  <scstep>
   <time name="total">  448.21  454.33</time>
   <energy>
    <i name="e_fr_energy">    -10.64516150 </i>
    <i name="e_wo_entrp">    -10.64516150 </i>
    <i name="e_0_energy">    -10.64516150 </i>
   </energy>
  </scstep>
  <scstep>
   <time name="total">  414.47  420.68</time>
   <energy>
    <i name="e_fr_energy">    -10.64517648 </i>
    <i name="e_wo_entrp">    -10.64517648 </i>
    <i name="e_0_energy">    -10.64517648 </i>
   </energy>
  </scstep>
  <scstep>
   <time name="total">  400.94  406.76</time>
   <energy>
    <i name="e_fr_energy">    -10.64517762 </i>
    <i name="e_wo_entrp">    -10.64517762 </i>
    <i name="e_0_energy">    -10.64517762 </i>
   </energy>
  </scstep>
  <scstep>
   <time name="total">  516.16  526.54</time>
   <energy>
    <i name="alphaZ">      5.99831677 </i>
    <i name="ewald">   -983.58522533 </i>
    <i name="hartreedc">    -59.98562904 </i>
    <i name="XCdc">   -303.85049003 </i>
    <i name="pawpsdc">   1910.19755357 </i>
    <i name="pawaedc">  -1561.17602897 </i>
    <i name="eentropy">     -0.00000000 </i>
    <i name="bandstr">     10.31483304 </i>
    <i name="atom">    971.44149227 </i>
    <i name="e_fr_energy">    -10.64517771 </i>
    <i name="e_wo_entrp">    -10.64517771 </i>
    <i name="e_0_energy">    -10.64517771 </i>
   </energy>
  </scstep>
  <structure>
   <crystal>
    <varray name="basis" >
     <v>      10.22228271      -2.21667734       0.00000000 </v>
     <v>      10.22228271       2.21667734       0.00000000 </v>
     <v>       9.74160157       0.00000000       3.80918902 </v>
    </varray>
    <i name="volume">    172.62865583 </i>
    <varray name="rec_basis" >
     <v>       0.04891275      -0.22556282      -0.12508924 </v>
     <v>       0.04891275       0.22556282      -0.12508924 </v>
     <v>      -0.00000000       0.00000000       0.26252307 </v>
    </varray>
   </crystal>
   <varray name="positions" >
    <v>       0.39979833       0.39979833       0.39979833 </v>
    <v>       0.60020167       0.60020167       0.60020167 </v>
    <v>       0.00000000       0.00000000       0.00000000 </v>
    <v>       0.21048582       0.21048582       0.21048582 </v>
    <v>       0.78951418       0.78951418       0.78951418 </v>
   </varray>
  </structure>
  <varray name="forces" >
   <v>      -0.00820042      -0.16776339      -0.09850468 </v>
   <v>       0.00819982       0.16776016       0.09850965 </v>
   <v>       0.00000036       0.00000137      -0.00000159 </v>
   <v>       0.37620977      -0.54723620      -0.27080362 </v>
   <v>      -0.37620953       0.54723806       0.27080024 </v>
  </varray>
  <varray name="stress" >
   <v>      73.84883216      13.62176443     -25.02061026 </v>
   <v>      13.62176575     181.80404877     -87.27438010 </v>
   <v>     -25.02061049     -87.27437970     280.78576443 </v>
  </varray>
  <energy>
   <i name="e_fr_energy">    -12.08523692 </i>
   <i name="e_wo_entrp">    -12.08523692 </i>
   <i name="e_0_energy">     -0.00000000 </i>
  </energy>
  <time name="totalsc"> 6559.24 6653.78</time>
  <eigenvalues>
   <array>
    <dimension dim="1">band</dimension>
    <dimension dim="2">kpoint</dimension>
    <dimension dim="3">spin</dimension>
    <field>eigene</field>
    <field>occ</field>
    <set>
     <set comment="spin 1">
      <set comment="kpoint 1">
       <r>   -7.2416    1.0000 </r>
       <r>   -7.2416    1.0000 </r>
       <r>   -6.9376    1.0000 </r>
       <r>   -6.9376    1.0000 </r>
       <r>   -5.2345    1.0000 </r>
       <r>   -5.2345    1.0000 </r>
       <r>   -4.0889    1.0000 </r>
       <r>   -4.0889    1.0000 </r>
       <r>   -2.8386    1.0000 </r>
       <r>   -2.8386    1.0000 </r>
       <r>    1.7560    1.0000 </r>
       <r>    1.7560    1.0000 </r>
       <r>    2.3527    1.0000 </r>
       <r>    2.3527    1.0000 </r>
       <r>    2.7063    1.0000 </r>
       <r>    2.7063    1.0000 </r>
       <r>    3.2028    1.0000 </r>
       <r>    3.2028    1.0000 </r>
       <r>    3.4510    1.0000 </r>
       <r>    3.4510    1.0000 </r>
       <r>    3.7440    1.0000 </r>
       <r>    3.7440    1.0000 </r>
       <r>    4.3589    1.0000 </r>
       <r>    4.3589    1.0000 </r>
       <r>    4.6531    1.0000 </r>
       <r>    4.6532    1.0000 </r>
       <r>    5.3490    1.0000 </r>
       <r>    5.3491    1.0000 </r>
       <r>    5.6710    0.0000 </r>
       <r>    5.6710    0.0000 </r>
       <r>    6.9068    0.0000 </r>
       <r>    6.9068    0.0000 </r>
       <r>    7.1073    0.0000 </r>
       <r>    7.1073    0.0000 </r>
       <r>    7.8712    0.0000 </r>
       <r>    7.8712    0.0000 </r>
       <r>    8.2488    0.0000 </r>
       <r>    8.2488    0.0000 </r>
       <r>    8.5637    0.0000 </r>
       <r>    8.5637    0.0000 </r>
       <r>    9.8540    0.0000 </r>
       <r>    9.8541    0.0000 </r>
       <r>   10.8293    0.0000 </r>
       <r>   10.8294    0.0000 </r>
       <r>   11.1397    0.0000 </r>
       <r>   11.1397    0.0000 </r>
       <r>   11.3099    0.0000 </r>
       <r>   11.3099    0.0000 </r>
       <r>   11.9040    0.0000 </r>
       <r>   11.9040    0.0000 </r>
       <r>   12.2404    0.0000 </r>
       <r>   12.2404    0.0000 </r>
       <r>   13.0541    0.0000 </r>
       <r>   13.0541    0.0000 </r>
       <r>   13.5077    0.0000 </r>
       <r>   13.5078    0.0000 </r>
       <r>   13.5638    0.0000 </r>
       <r>   13.5638    0.0000 </r>
       <r>   14.0818    0.0000 </r>
       <r>   14.0818    0.0000 </r>
       <r>   14.3991    0.0000 </r>
       <r>   14.3992    0.0000 </r>
       <r>   14.8524    0.0000 </r>
       <r>   14.8525    0.0000 </r>
       <r>   14.9494    0.0000 </r>
       <r>   14.9494    0.0000 </r>
       <r>   15.1342    0.0000 </r>
       <r>   15.1342    0.0000 </r>
       <r>   15.4024    0.0000 </r>
       <r>   15.4025    0.0000 </r>
       <r>   16.5395    0.0000 </r>
       <r>   16.5395    0.0000 </r>
       <r>   16.7067    0.0000 </r>
       <r>   16.7067    0.0000 </r>
       <r>   16.9943    0.0000 </r>
       <r>   16.9943    0.0000 </r>
       <r>   17.1286    0.0000 </r>
       <r>   17.1286    0.0000 </r>
       <r>   17.4855    0.0000 </r>
       <r>   17.4855    0.0000 </r>
       <r>   18.4159    0.0000 </r>
       <r>   18.4160    0.0000 </r>
       <r>   18.8501    0.0000 </r>
       <r>   18.8502    0.0000 </r>
       <r>   19.4803    0.0000 </r>
       <r>   19.4805    0.0000 </r>
       <r>   20.6951    0.0000 </r>
       <r>   20.7898    0.0000 </r>
      </set>
      <set comment="kpoint 2">
       <r>   -7.2724    1.0000 </r>
       <r>   -7.2724    1.0000 </r>
       <r>   -6.8972    1.0000 </r>
       <r>   -6.8972    1.0000 </r>
       <r>   -5.2955    1.0000 </r>
       <r>   -5.2955    1.0000 </r>
       <r>   -4.0198    1.0000 </r>
       <r>   -4.0198    1.0000 </r>
       <r>   -2.8559    1.0000 </r>
       <r>   -2.8559    1.0000 </r>
       <r>    1.7976    1.0000 </r>
       <r>    1.7976    1.0000 </r>
       <r>    2.2856    1.0000 </r>
       <r>    2.2856    1.0000 </r>
       <r>    2.7340    1.0000 </r>
       <r>    2.7340    1.0000 </r>
       <r>    3.1873    1.0000 </r>
       <r>    3.1873    1.0000 </r>
       <r>    3.4163    1.0000 </r>
       <r>    3.4163    1.0000 </r>
       <r>    3.7755    1.0000 </r>
       <r>    3.7755    1.0000 </r>
       <r>    4.4555    1.0000 </r>
       <r>    4.4555    1.0000 </r>
       <r>    4.6708    1.0000 </r>
       <r>    4.6708    1.0000 </r>
       <r>    5.3147    1.0000 </r>
       <r>    5.3147    1.0000 </r>
       <r>    5.7045    0.0000 </r>
       <r>    5.7045    0.0000 </r>
       <r>    6.9431    0.0000 </r>
       <r>    6.9431    0.0000 </r>
       <r>    7.0592    0.0000 </r>
       <r>    7.0592    0.0000 </r>
       <r>    7.7876    0.0000 </r>
       <r>    7.7876    0.0000 </r>
       <r>    8.2349    0.0000 </r>
       <r>    8.2349    0.0000 </r>
       <r>    8.5404    0.0000 </r>
       <r>    8.5404    0.0000 </r>
       <r>    9.7814    0.0000 </r>
       <r>    9.7814    0.0000 </r>
       <r>   10.8659    0.0000 </r>
       <r>   10.8659    0.0000 </r>
       <r>   11.2362    0.0000 </r>
       <r>   11.2362    0.0000 </r>
       <r>   11.3078    0.0000 </r>
       <r>   11.3078    0.0000 </r>
       <r>   11.9559    0.0000 </r>
       <r>   11.9560    0.0000 </r>
       <r>   12.1445    0.0000 </r>
       <r>   12.1445    0.0000 </r>
       <r>   13.2388    0.0000 </r>
       <r>   13.2388    0.0000 </r>
       <r>   13.5714    0.0000 </r>
       <r>   13.5714    0.0000 </r>
       <r>   13.7670    0.0000 </r>
       <r>   13.7670    0.0000 </r>
       <r>   13.8846    0.0000 </r>
       <r>   13.8846    0.0000 </r>
       <r>   14.4994    0.0000 </r>
       <r>   14.4995    0.0000 </r>
       <r>   14.6841    0.0000 </r>
       <r>   14.6841    0.0000 </r>
       <r>   14.8930    0.0000 </r>
       <r>   14.8930    0.0000 </r>
       <r>   14.9822    0.0000 </r>
       <r>   14.9822    0.0000 </r>
       <r>   15.4975    0.0000 </r>
       <r>   15.4975    0.0000 </r>
       <r>   16.2591    0.0000 </r>
       <r>   16.2591    0.0000 </r>
       <r>   16.5081    0.0000 </r>
       <r>   16.5081    0.0000 </r>
       <r>   16.7272    0.0000 </r>
       <r>   16.7272    0.0000 </r>
       <r>   17.1845    0.0000 </r>
       <r>   17.1845    0.0000 </r>
       <r>   17.3942    0.0000 </r>
       <r>   17.3942    0.0000 </r>
       <r>   18.6895    0.0000 </r>
       <r>   18.6895    0.0000 </r>
       <r>   19.1942    0.0000 </r>
       <r>   19.1942    0.0000 </r>
       <r>   19.8698    0.0000 </r>
       <r>   19.8710    0.0000 </r>
       <r>   20.6892    0.0000 </r>
       <r>   20.7315    0.0000 </r>
      </set>
      <set comment="kpoint 3">
       <r>   -7.2567    1.0000 </r>
       <r>   -7.2567    1.0000 </r>
       <r>   -6.9186    1.0000 </r>
       <r>   -6.9186    1.0000 </r>
       <r>   -5.2628    1.0000 </r>
       <r>   -5.2628    1.0000 </r>
       <r>   -4.0576    1.0000 </r>
       <r>   -4.0576    1.0000 </r>
       <r>   -2.8452    1.0000 </r>
       <r>   -2.8452    1.0000 </r>
       <r>    1.7756    1.0000 </r>
       <r>    1.7756    1.0000 </r>
       <r>    2.3187    1.0000 </r>
       <r>    2.3187    1.0000 </r>
       <r>    2.7228    1.0000 </r>
       <r>    2.7228    1.0000 </r>
       <r>    3.1933    1.0000 </r>
       <r>    3.1933    1.0000 </r>
       <r>    3.4342    1.0000 </r>
       <r>    3.4342    1.0000 </r>
       <r>    3.7564    1.0000 </r>
       <r>    3.7564    1.0000 </r>
       <r>    4.4106    1.0000 </r>
       <r>    4.4106    1.0000 </r>
       <r>    4.6610    1.0000 </r>
       <r>    4.6610    1.0000 </r>
       <r>    5.3398    1.0000 </r>
       <r>    5.3398    1.0000 </r>
       <r>    5.6804    0.0000 </r>
       <r>    5.6804    0.0000 </r>
       <r>    6.9259    0.0000 </r>
       <r>    6.9259    0.0000 </r>
       <r>    7.0814    0.0000 </r>
       <r>    7.0814    0.0000 </r>
       <r>    7.8313    0.0000 </r>
       <r>    7.8313    0.0000 </r>
       <r>    8.2418    0.0000 </r>
       <r>    8.2418    0.0000 </r>
       <r>    8.5502    0.0000 </r>
       <r>    8.5502    0.0000 </r>
       <r>    9.8172    0.0000 </r>
       <r>    9.8172    0.0000 </r>
       <r>   10.8604    0.0000 </r>
       <r>   10.8605    0.0000 </r>
       <r>   11.1842    0.0000 </r>
       <r>   11.1842    0.0000 </r>
       <r>   11.2917    0.0000 </r>
       <r>   11.2918    0.0000 </r>
       <r>   11.9368    0.0000 </r>
       <r>   11.9368    0.0000 </r>
       <r>   12.1824    0.0000 </r>
       <r>   12.1824    0.0000 </r>
       <r>   13.1485    0.0000 </r>
       <r>   13.1485    0.0000 </r>
       <r>   13.5574    0.0000 </r>
       <r>   13.5575    0.0000 </r>
       <r>   13.6655    0.0000 </r>
       <r>   13.6655    0.0000 </r>
       <r>   13.9622    0.0000 </r>
       <r>   13.9622    0.0000 </r>
       <r>   14.4533    0.0000 </r>
       <r>   14.4533    0.0000 </r>
       <r>   14.7863    0.0000 </r>
       <r>   14.7864    0.0000 </r>
       <r>   14.9102    0.0000 </r>
       <r>   14.9102    0.0000 </r>
       <r>   15.0684    0.0000 </r>
       <r>   15.0685    0.0000 </r>
       <r>   15.4350    0.0000 </r>
       <r>   15.4351    0.0000 </r>
       <r>   16.4005    0.0000 </r>
       <r>   16.4005    0.0000 </r>
       <r>   16.6184    0.0000 </r>
       <r>   16.6184    0.0000 </r>
       <r>   16.8537    0.0000 </r>
       <r>   16.8537    0.0000 </r>
       <r>   17.2206    0.0000 </r>
       <r>   17.2206    0.0000 </r>
       <r>   17.3491    0.0000 </r>
       <r>   17.3491    0.0000 </r>
       <r>   18.5484    0.0000 </r>
       <r>   18.5484    0.0000 </r>
       <r>   19.0140    0.0000 </r>
       <r>   19.0141    0.0000 </r>
       <r>   19.6807    0.0000 </r>
       <r>   19.6883    0.0000 </r>
       <r>   20.8007    0.0000 </r>
       <r>   20.8468    0.0000 </r>
      </set>
      <set comment="kpoint 4">
       <r>   -7.2281    1.0000 </r>
       <r>   -7.2281    1.0000 </r>
       <r>   -6.9532    1.0000 </r>
       <r>   -6.9532    1.0000 </r>
       <r>   -5.2122    1.0000 </r>
       <r>   -5.2122    1.0000 </r>
       <r>   -4.1124    1.0000 </r>
       <r>   -4.1124    1.0000 </r>
       <r>   -2.8362    1.0000 </r>
       <r>   -2.8362    1.0000 </r>
       <r>    1.7387    1.0000 </r>
       <r>    1.7387    1.0000 </r>
       <r>    2.3869    1.0000 </r>
       <r>    2.3869    1.0000 </r>
       <r>    2.6861    1.0000 </r>
       <r>    2.6861    1.0000 </r>
       <r>    3.2132    1.0000 </r>
       <r>    3.2132    1.0000 </r>
       <r>    3.4672    1.0000 </r>
       <r>    3.4672    1.0000 </r>
       <r>    3.7378    1.0000 </r>
       <r>    3.7378    1.0000 </r>
       <r>    4.3073    1.0000 </r>
       <r>    4.3073    1.0000 </r>
       <r>    4.6419    1.0000 </r>
       <r>    4.6419    1.0000 </r>
       <r>    5.3401    1.0000 </r>
       <r>    5.3401    1.0000 </r>
       <r>    5.6787    0.0000 </r>
       <r>    5.6787    0.0000 </r>
       <r>    6.8931    0.0000 </r>
       <r>    6.8931    0.0000 </r>
       <r>    7.1299    0.0000 </r>
       <r>    7.1299    0.0000 </r>
       <r>    7.9037    0.0000 </r>
       <r>    7.9037    0.0000 </r>
       <r>    8.2602    0.0000 </r>
       <r>    8.2602    0.0000 </r>
       <r>    8.5786    0.0000 </r>
       <r>    8.5786    0.0000 </r>
       <r>    9.8906    0.0000 </r>
       <r>    9.8906    0.0000 </r>
       <r>   10.7831    0.0000 </r>
       <r>   10.7832    0.0000 </r>
       <r>   11.0994    0.0000 </r>
       <r>   11.0995    0.0000 </r>
       <r>   11.3560    0.0000 </r>
       <r>   11.3560    0.0000 </r>
       <r>   11.8673    0.0000 </r>
       <r>   11.8673    0.0000 </r>
       <r>   12.3088    0.0000 </r>
       <r>   12.3088    0.0000 </r>
       <r>   12.9600    0.0000 </r>
       <r>   12.9600    0.0000 </r>
       <r>   13.4393    0.0000 </r>
       <r>   13.4393    0.0000 </r>
       <r>   13.4822    0.0000 </r>
       <r>   13.4822    0.0000 </r>
       <r>   14.1760    0.0000 </r>
       <r>   14.1760    0.0000 </r>
       <r>   14.3667    0.0000 </r>
       <r>   14.3667    0.0000 </r>
       <r>   14.8811    0.0000 </r>
       <r>   14.8811    0.0000 </r>
       <r>   15.0130    0.0000 </r>
       <r>   15.0130    0.0000 </r>
       <r>   15.1279    0.0000 </r>
       <r>   15.1279    0.0000 </r>
       <r>   15.4503    0.0000 </r>
       <r>   15.4504    0.0000 </r>
       <r>   16.6594    0.0000 </r>
       <r>   16.6594    0.0000 </r>
       <r>   16.7363    0.0000 </r>
       <r>   16.7364    0.0000 </r>
       <r>   17.1009    0.0000 </r>
       <r>   17.1009    0.0000 </r>
       <r>   17.1777    0.0000 </r>
       <r>   17.1778    0.0000 </r>
       <r>   17.6153    0.0000 </r>
       <r>   17.6153    0.0000 </r>
       <r>   18.2998    0.0000 </r>
       <r>   18.2998    0.0000 </r>
       <r>   18.7132    0.0000 </r>
       <r>   18.7132    0.0000 </r>
       <r>   19.2754    0.0000 </r>
       <r>   19.2756    0.0000 </r>
       <r>   20.5132    0.0000 </r>
       <r>   20.5525    0.0000 </r>
      </set>
      <set comment="kpoint 5">
       <r>   -7.2171    1.0000 </r>
       <r>   -7.2171    1.0000 </r>
       <r>   -6.9639    1.0000 </r>
       <r>   -6.9639    1.0000 </r>
       <r>   -5.1970    1.0000 </r>
       <r>   -5.1970    1.0000 </r>
       <r>   -4.1270    1.0000 </r>
       <r>   -4.1270    1.0000 </r>
       <r>   -2.8378    1.0000 </r>
       <r>   -2.8378    1.0000 </r>
       <r>    1.7238    1.0000 </r>
       <r>    1.7239    1.0000 </r>
       <r>    2.4205    1.0000 </r>
       <r>    2.4205    1.0000 </r>
       <r>    2.6636    1.0000 </r>
       <r>    2.6636    1.0000 </r>
       <r>    3.2221    1.0000 </r>
       <r>    3.2221    1.0000 </r>
       <r>    3.4839    1.0000 </r>
       <r>    3.4839    1.0000 </r>
       <r>    3.7360    1.0000 </r>
       <r>    3.7360    1.0000 </r>
       <r>    4.2611    1.0000 </r>
       <r>    4.2611    1.0000 </r>
       <r>    4.6249    1.0000 </r>
       <r>    4.6249    1.0000 </r>
       <r>    5.3156    1.0000 </r>
       <r>    5.3156    1.0000 </r>
       <r>    5.7011    0.0000 </r>
       <r>    5.7011    0.0000 </r>
       <r>    6.8869    0.0000 </r>
       <r>    6.8869    0.0000 </r>
       <r>    7.1469    0.0000 </r>
       <r>    7.1469    0.0000 </r>
       <r>    7.9252    0.0000 </r>
       <r>    7.9252    0.0000 </r>
       <r>    8.2800    0.0000 </r>
       <r>    8.2800    0.0000 </r>
       <r>    8.5930    0.0000 </r>
       <r>    8.5930    0.0000 </r>
       <r>    9.9250    0.0000 </r>
       <r>    9.9250    0.0000 </r>
       <r>   10.7329    0.0000 </r>
       <r>   10.7330    0.0000 </r>
       <r>   11.0632    0.0000 </r>
       <r>   11.0633    0.0000 </r>
       <r>   11.4203    0.0000 </r>
       <r>   11.4203    0.0000 </r>
       <r>   11.8306    0.0000 </r>
       <r>   11.8306    0.0000 </r>
       <r>   12.3839    0.0000 </r>
       <r>   12.3839    0.0000 </r>
       <r>   12.8698    0.0000 </r>
       <r>   12.8698    0.0000 </r>
       <r>   13.3569    0.0000 </r>
       <r>   13.3569    0.0000 </r>
       <r>   13.4255    0.0000 </r>
       <r>   13.4256    0.0000 </r>
       <r>   14.1614    0.0000 </r>
       <r>   14.1614    0.0000 </r>
       <r>   14.4277    0.0000 </r>
       <r>   14.4278    0.0000 </r>
       <r>   14.9123    0.0000 </r>
       <r>   14.9124    0.0000 </r>
       <r>   14.9989    0.0000 </r>
       <r>   14.9989    0.0000 </r>
       <r>   15.1354    0.0000 </r>
       <r>   15.1354    0.0000 </r>
       <r>   15.5516    0.0000 </r>
       <r>   15.5516    0.0000 </r>
       <r>   16.6676    0.0000 </r>
       <r>   16.6676    0.0000 </r>
       <r>   16.8068    0.0000 </r>
       <r>   16.8068    0.0000 </r>
       <r>   17.1947    0.0000 </r>
       <r>   17.1947    0.0000 </r>
       <r>   17.3362    0.0000 </r>
       <r>   17.3362    0.0000 </r>
       <r>   17.7101    0.0000 </r>
       <r>   17.7101    0.0000 </r>
       <r>   18.2202    0.0000 </r>
       <r>   18.2203    0.0000 </r>
       <r>   18.6173    0.0000 </r>
       <r>   18.6173    0.0000 </r>
       <r>   19.0688    0.0000 </r>
       <r>   19.0688    0.0000 </r>
       <r>   20.3203    0.0000 </r>
       <r>   20.4157    0.0000 </r>
      </set>
      <set comment="kpoint 6">
       <r>   -7.1760    1.0000 </r>
       <r>   -7.1759    1.0000 </r>
       <r>   -6.8787    1.0000 </r>
       <r>   -6.8787    1.0000 </r>
       <r>   -5.2061    1.0000 </r>
       <r>   -5.2061    1.0000 </r>
       <r>   -4.1187    1.0000 </r>
       <r>   -4.1187    1.0000 </r>
       <r>   -2.9464    1.0000 </r>
       <r>   -2.9464    1.0000 </r>
       <r>    1.6118    1.0000 </r>
       <r>    1.6118    1.0000 </r>
       <r>    2.3050    1.0000 </r>
       <r>    2.3051    1.0000 </r>
       <r>    2.5556    1.0000 </r>
       <r>    2.5556    1.0000 </r>
       <r>    3.0558    1.0000 </r>
       <r>    3.0559    1.0000 </r>
       <r>    3.3943    1.0000 </r>
       <r>    3.3943    1.0000 </r>
       <r>    3.6181    1.0000 </r>
       <r>    3.6181    1.0000 </r>
       <r>    4.3910    1.0000 </r>
       <r>    4.3910    1.0000 </r>
       <r>    4.6567    1.0000 </r>
       <r>    4.6567    1.0000 </r>
       <r>    5.2954    1.0000 </r>
       <r>    5.2954    1.0000 </r>
       <r>    5.7354    0.0000 </r>
       <r>    5.7354    0.0000 </r>
       <r>    6.9271    0.0000 </r>
       <r>    6.9271    0.0000 </r>
       <r>    7.1944    0.0000 </r>
       <r>    7.1944    0.0000 </r>
       <r>    7.8570    0.0000 </r>
       <r>    7.8570    0.0000 </r>
       <r>    8.4443    0.0000 </r>
       <r>    8.4443    0.0000 </r>
       <r>    8.6917    0.0000 </r>
       <r>    8.6917    0.0000 </r>
       <r>    9.7679    0.0000 </r>
       <r>    9.7680    0.0000 </r>
       <r>   10.7426    0.0000 </r>
       <r>   10.7426    0.0000 </r>
       <r>   11.2209    0.0000 </r>
       <r>   11.2210    0.0000 </r>
       <r>   11.3289    0.0000 </r>
       <r>   11.3289    0.0000 </r>
       <r>   12.0696    0.0000 </r>
       <r>   12.0697    0.0000 </r>
       <r>   12.3041    0.0000 </r>
       <r>   12.3042    0.0000 </r>
       <r>   13.0785    0.0000 </r>
       <r>   13.0786    0.0000 </r>
       <r>   13.5585    0.0000 </r>
       <r>   13.5585    0.0000 </r>
       <r>   13.7710    0.0000 </r>
       <r>   13.7710    0.0000 </r>
       <r>   14.2248    0.0000 </r>
       <r>   14.2248    0.0000 </r>
       <r>   14.6300    0.0000 </r>
       <r>   14.6300    0.0000 </r>
       <r>   15.0165    0.0000 </r>
       <r>   15.0166    0.0000 </r>
       <r>   15.1662    0.0000 </r>
       <r>   15.1663    0.0000 </r>
       <r>   15.3681    0.0000 </r>
       <r>   15.3681    0.0000 </r>
       <r>   15.6058    0.0000 </r>
       <r>   15.6059    0.0000 </r>
       <r>   16.4644    0.0000 </r>
       <r>   16.4644    0.0000 </r>
       <r>   16.5791    0.0000 </r>
       <r>   16.5791    0.0000 </r>
       <r>   16.9546    0.0000 </r>
       <r>   16.9546    0.0000 </r>
       <r>   17.0532    0.0000 </r>
       <r>   17.0533    0.0000 </r>
       <r>   17.7492    0.0000 </r>
       <r>   17.7493    0.0000 </r>
       <r>   18.6738    0.0000 </r>
       <r>   18.6738    0.0000 </r>
       <r>   19.0657    0.0000 </r>
       <r>   19.0657    0.0000 </r>
       <r>   19.3445    0.0000 </r>
       <r>   19.3446    0.0000 </r>
       <r>   20.5772    0.0000 </r>
       <r>   20.7003    0.0000 </r>
      </set>
      <set comment="kpoint 7">
       <r>   -7.2098    1.0000 </r>
       <r>   -7.2098    1.0000 </r>
       <r>   -6.9091    1.0000 </r>
       <r>   -6.9090    1.0000 </r>
       <r>   -5.2205    1.0000 </r>
       <r>   -5.2205    1.0000 </r>
       <r>   -4.1031    1.0000 </r>
       <r>   -4.1031    1.0000 </r>
       <r>   -2.8912    1.0000 </r>
       <r>   -2.8911    1.0000 </r>
       <r>    1.6819    1.0000 </r>
       <r>    1.6820    1.0000 </r>
       <r>    2.3316    1.0000 </r>
       <r>    2.3317    1.0000 </r>
       <r>    2.6322    1.0000 </r>
       <r>    2.6322    1.0000 </r>
       <r>    3.1309    1.0000 </r>
       <r>    3.1309    1.0000 </r>
       <r>    3.4206    1.0000 </r>
       <r>    3.4206    1.0000 </r>
       <r>    3.6764    1.0000 </r>
       <r>    3.6765    1.0000 </r>
       <r>    4.3764    1.0000 </r>
       <r>    4.3764    1.0000 </r>
       <r>    4.6570    1.0000 </r>
       <r>    4.6570    1.0000 </r>
       <r>    5.3327    1.0000 </r>
       <r>    5.3327    1.0000 </r>
       <r>    5.6928    0.0000 </r>
       <r>    5.6928    0.0000 </r>
       <r>    6.9146    0.0000 </r>
       <r>    6.9146    0.0000 </r>
       <r>    7.1563    0.0000 </r>
       <r>    7.1563    0.0000 </r>
       <r>    7.8710    0.0000 </r>
       <r>    7.8710    0.0000 </r>
       <r>    8.3424    0.0000 </r>
       <r>    8.3424    0.0000 </r>
       <r>    8.6247    0.0000 </r>
       <r>    8.6247    0.0000 </r>
       <r>    9.8095    0.0000 </r>
       <r>    9.8095    0.0000 </r>
       <r>   10.7866    0.0000 </r>
       <r>   10.7867    0.0000 </r>
       <r>   11.1960    0.0000 </r>
       <r>   11.1960    0.0000 </r>
       <r>   11.3009    0.0000 </r>
       <r>   11.3010    0.0000 </r>
       <r>   11.9828    0.0000 </r>
       <r>   11.9829    0.0000 </r>
       <r>   12.2656    0.0000 </r>
       <r>   12.2656    0.0000 </r>
       <r>   13.0705    0.0000 </r>
       <r>   13.0705    0.0000 </r>
       <r>   13.5447    0.0000 </r>
       <r>   13.5447    0.0000 </r>
       <r>   13.6416    0.0000 </r>
       <r>   13.6417    0.0000 </r>
       <r>   14.1529    0.0000 </r>
       <r>   14.1530    0.0000 </r>
       <r>   14.5173    0.0000 </r>
       <r>   14.5174    0.0000 </r>
       <r>   14.9516    0.0000 </r>
       <r>   14.9517    0.0000 </r>
       <r>   15.0514    0.0000 </r>
       <r>   15.0515    0.0000 </r>
       <r>   15.2428    0.0000 </r>
       <r>   15.2428    0.0000 </r>
       <r>   15.5021    0.0000 </r>
       <r>   15.5021    0.0000 </r>
       <r>   16.5191    0.0000 </r>
       <r>   16.5191    0.0000 </r>
       <r>   16.6343    0.0000 </r>
       <r>   16.6343    0.0000 </r>
       <r>   16.9792    0.0000 </r>
       <r>   16.9792    0.0000 </r>
       <r>   17.0660    0.0000 </r>
       <r>   17.0660    0.0000 </r>
       <r>   17.6126    0.0000 </r>
       <r>   17.6127    0.0000 </r>
       <r>   18.5444    0.0000 </r>
       <r>   18.5445    0.0000 </r>
       <r>   18.9517    0.0000 </r>
       <r>   18.9517    0.0000 </r>
       <r>   19.4153    0.0000 </r>
       <r>   19.4154    0.0000 </r>
       <r>   20.6418    0.0000 </r>
       <r>   20.8006    0.0000 </r>
      </set>
      <set comment="kpoint 8">
       <r>   -7.2714    1.0000 </r>
       <r>   -7.2714    1.0000 </r>
       <r>   -6.9644    1.0000 </r>
       <r>   -6.9644    1.0000 </r>
       <r>   -5.2480    1.0000 </r>
       <r>   -5.2480    1.0000 </r>
       <r>   -4.0761    1.0000 </r>
       <r>   -4.0761    1.0000 </r>
       <r>   -2.7889    1.0000 </r>
       <r>   -2.7889    1.0000 </r>
       <r>    1.8335    1.0000 </r>
       <r>    1.8335    1.0000 </r>
       <r>    2.3705    1.0000 </r>
       <r>    2.3706    1.0000 </r>
       <r>    2.7740    1.0000 </r>
       <r>    2.7740    1.0000 </r>
       <r>    3.2717    1.0000 </r>
       <r>    3.2717    1.0000 </r>
       <r>    3.4871    1.0000 </r>
       <r>    3.4871    1.0000 </r>
       <r>    3.8186    1.0000 </r>
       <r>    3.8186    1.0000 </r>
       <r>    4.3420    1.0000 </r>
       <r>    4.3420    1.0000 </r>
       <r>    4.6428    1.0000 </r>
       <r>    4.6428    1.0000 </r>
       <r>    5.3372    1.0000 </r>
       <r>    5.3372    1.0000 </r>
       <r>    5.6774    0.0000 </r>
       <r>    5.6774    0.0000 </r>
       <r>    6.9018    0.0000 </r>
       <r>    6.9018    0.0000 </r>
       <r>    7.0496    0.0000 </r>
       <r>    7.0496    0.0000 </r>
       <r>    7.8439    0.0000 </r>
       <r>    7.8439    0.0000 </r>
       <r>    8.1788    0.0000 </r>
       <r>    8.1788    0.0000 </r>
       <r>    8.5077    0.0000 </r>
       <r>    8.5077    0.0000 </r>
       <r>    9.9015    0.0000 </r>
       <r>    9.9016    0.0000 </r>
       <r>   10.8681    0.0000 </r>
       <r>   10.8681    0.0000 </r>
       <r>   11.0766    0.0000 </r>
       <r>   11.0767    0.0000 </r>
       <r>   11.3347    0.0000 </r>
       <r>   11.3347    0.0000 </r>
       <r>   11.8320    0.0000 </r>
       <r>   11.8320    0.0000 </r>
       <r>   12.2290    0.0000 </r>
       <r>   12.2290    0.0000 </r>
       <r>   13.0186    0.0000 </r>
       <r>   13.0186    0.0000 </r>
       <r>   13.4185    0.0000 </r>
       <r>   13.4186    0.0000 </r>
       <r>   13.5770    0.0000 </r>
       <r>   13.5770    0.0000 </r>
       <r>   14.0114    0.0000 </r>
       <r>   14.0114    0.0000 </r>
       <r>   14.2771    0.0000 </r>
       <r>   14.2771    0.0000 </r>
       <r>   14.7362    0.0000 </r>
       <r>   14.7363    0.0000 </r>
       <r>   14.8298    0.0000 </r>
       <r>   14.8298    0.0000 </r>
       <r>   15.0555    0.0000 </r>
       <r>   15.0555    0.0000 </r>
       <r>   15.3124    0.0000 </r>
       <r>   15.3125    0.0000 </r>
       <r>   16.5218    0.0000 </r>
       <r>   16.5218    0.0000 </r>
       <r>   16.7929    0.0000 </r>
       <r>   16.7930    0.0000 </r>
       <r>   17.0259    0.0000 </r>
       <r>   17.0260    0.0000 </r>
       <r>   17.2043    0.0000 </r>
       <r>   17.2043    0.0000 </r>
       <r>   17.3749    0.0000 </r>
       <r>   17.3750    0.0000 </r>
       <r>   18.2942    0.0000 </r>
       <r>   18.2942    0.0000 </r>
       <r>   18.7627    0.0000 </r>
       <r>   18.7627    0.0000 </r>
       <r>   19.5359    0.0000 </r>
       <r>   19.5363    0.0000 </r>
       <r>   20.7112    0.0000 </r>
       <r>   20.8251    0.0000 </r>
      </set>
      <set comment="kpoint 9">
       <r>   -7.2990    1.0000 </r>
       <r>   -7.2990    1.0000 </r>
       <r>   -6.9893    1.0000 </r>
       <r>   -6.9893    1.0000 </r>
       <r>   -5.2609    1.0000 </r>
       <r>   -5.2609    1.0000 </r>
       <r>   -4.0647    1.0000 </r>
       <r>   -4.0647    1.0000 </r>
       <r>   -2.7423    1.0000 </r>
       <r>   -2.7423    1.0000 </r>
       <r>    1.9140    1.0000 </r>
       <r>    1.9140    1.0000 </r>
       <r>    2.3865    1.0000 </r>
       <r>    2.3865    1.0000 </r>
       <r>    2.8327    1.0000 </r>
       <r>    2.8328    1.0000 </r>
       <r>    3.3362    1.0000 </r>
       <r>    3.3362    1.0000 </r>
       <r>    3.5320    1.0000 </r>
       <r>    3.5320    1.0000 </r>
       <r>    3.8962    1.0000 </r>
       <r>    3.8962    1.0000 </r>
       <r>    4.3295    1.0000 </r>
       <r>    4.3295    1.0000 </r>
       <r>    4.6245    1.0000 </r>
       <r>    4.6245    1.0000 </r>
       <r>    5.3036    1.0000 </r>
       <r>    5.3036    1.0000 </r>
       <r>    5.7063    0.0000 </r>
       <r>    5.7063    0.0000 </r>
       <r>    6.8908    0.0000 </r>
       <r>    6.8908    0.0000 </r>
       <r>    6.9923    0.0000 </r>
       <r>    6.9923    0.0000 </r>
       <r>    7.7810    0.0000 </r>
       <r>    7.7810    0.0000 </r>
       <r>    8.1405    0.0000 </r>
       <r>    8.1405    0.0000 </r>
       <r>    8.4572    0.0000 </r>
       <r>    8.4572    0.0000 </r>
       <r>    9.9519    0.0000 </r>
       <r>    9.9519    0.0000 </r>
       <r>   10.8975    0.0000 </r>
       <r>   10.8975    0.0000 </r>
       <r>   11.0188    0.0000 </r>
       <r>   11.0189    0.0000 </r>
       <r>   11.3697    0.0000 </r>
       <r>   11.3697    0.0000 </r>
       <r>   11.7658    0.0000 </r>
       <r>   11.7658    0.0000 </r>
       <r>   12.2316    0.0000 </r>
       <r>   12.2316    0.0000 </r>
       <r>   12.9590    0.0000 </r>
       <r>   12.9590    0.0000 </r>
       <r>   13.3490    0.0000 </r>
       <r>   13.3491    0.0000 </r>
       <r>   13.6125    0.0000 </r>
       <r>   13.6125    0.0000 </r>
       <r>   13.9426    0.0000 </r>
       <r>   13.9427    0.0000 </r>
       <r>   14.1545    0.0000 </r>
       <r>   14.1545    0.0000 </r>
       <r>   14.6103    0.0000 </r>
       <r>   14.6103    0.0000 </r>
       <r>   14.6967    0.0000 </r>
       <r>   14.6967    0.0000 </r>
       <r>   14.9949    0.0000 </r>
       <r>   14.9949    0.0000 </r>
       <r>   15.2364    0.0000 </r>
       <r>   15.2364    0.0000 </r>
       <r>   16.4781    0.0000 </r>
       <r>   16.4781    0.0000 </r>
       <r>   16.8811    0.0000 </r>
       <r>   16.8811    0.0000 </r>
       <r>   17.0622    0.0000 </r>
       <r>   17.0623    0.0000 </r>
       <r>   17.2359    0.0000 </r>
       <r>   17.2359    0.0000 </r>
       <r>   17.3391    0.0000 </r>
       <r>   17.3391    0.0000 </r>
       <r>   18.1871    0.0000 </r>
       <r>   18.1871    0.0000 </r>
       <r>   18.6889    0.0000 </r>
       <r>   18.6889    0.0000 </r>
       <r>   19.5805    0.0000 </r>
       <r>   19.5809    0.0000 </r>
       <r>   20.7078    0.0000 </r>
       <r>   20.8012    0.0000 </r>
      </set>
      <set comment="kpoint 10">
       <r>   -7.2054    1.0000 </r>
       <r>   -7.2054    1.0000 </r>
       <r>   -6.8970    1.0000 </r>
       <r>   -6.8970    1.0000 </r>
       <r>   -5.2238    1.0000 </r>
       <r>   -5.2238    1.0000 </r>
       <r>   -4.0990    1.0000 </r>
       <r>   -4.0990    1.0000 </r>
       <r>   -2.9063    1.0000 </r>
       <r>   -2.9063    1.0000 </r>
       <r>    1.6743    1.0000 </r>
       <r>    1.6744    1.0000 </r>
       <r>    2.3166    1.0000 </r>
       <r>    2.3166    1.0000 </r>
       <r>    2.5912    1.0000 </r>
       <r>    2.5912    1.0000 </r>
       <r>    3.1089    1.0000 </r>
       <r>    3.1089    1.0000 </r>
       <r>    3.4270    1.0000 </r>
       <r>    3.4271    1.0000 </r>
       <r>    3.7022    1.0000 </r>
       <r>    3.7022    1.0000 </r>
       <r>    4.3832    1.0000 </r>
       <r>    4.3832    1.0000 </r>
       <r>    4.6335    1.0000 </r>
       <r>    4.6335    1.0000 </r>
       <r>    5.2456    1.0000 </r>
       <r>    5.2456    1.0000 </r>
       <r>    5.7902    0.0000 </r>
       <r>    5.7902    0.0000 </r>
       <r>    6.9394    0.0000 </r>
       <r>    6.9394    0.0000 </r>
       <r>    7.1448    0.0000 </r>
       <r>    7.1448    0.0000 </r>
       <r>    7.8567    0.0000 </r>
       <r>    7.8567    0.0000 </r>
       <r>    8.3620    0.0000 </r>
       <r>    8.3620    0.0000 </r>
       <r>    8.6389    0.0000 </r>
       <r>    8.6390    0.0000 </r>
       <r>    9.8016    0.0000 </r>
       <r>    9.8017    0.0000 </r>
       <r>   10.7867    0.0000 </r>
       <r>   10.7868    0.0000 </r>
       <r>   11.1893    0.0000 </r>
       <r>   11.1893    0.0000 </r>
       <r>   11.2622    0.0000 </r>
       <r>   11.2622    0.0000 </r>
       <r>   12.0304    0.0000 </r>
       <r>   12.0304    0.0000 </r>
       <r>   12.2980    0.0000 </r>
       <r>   12.2980    0.0000 </r>
       <r>   13.0763    0.0000 </r>
       <r>   13.0763    0.0000 </r>
       <r>   13.6087    0.0000 </r>
       <r>   13.6088    0.0000 </r>
       <r>   13.6879    0.0000 </r>
       <r>   13.6880    0.0000 </r>
       <r>   14.1367    0.0000 </r>
       <r>   14.1368    0.0000 </r>
       <r>   14.5428    0.0000 </r>
       <r>   14.5429    0.0000 </r>
       <r>   14.8629    0.0000 </r>
       <r>   14.8630    0.0000 </r>
       <r>   15.0341    0.0000 </r>
       <r>   15.0341    0.0000 </r>
       <r>   15.3498    0.0000 </r>
       <r>   15.3498    0.0000 </r>
       <r>   15.5651    0.0000 </r>
       <r>   15.5651    0.0000 </r>
       <r>   16.3941    0.0000 </r>
       <r>   16.3941    0.0000 </r>
       <r>   16.6028    0.0000 </r>
       <r>   16.6028    0.0000 </r>
       <r>   17.0108    0.0000 </r>
       <r>   17.0108    0.0000 </r>
       <r>   17.1100    0.0000 </r>
       <r>   17.1100    0.0000 </r>
       <r>   17.6089    0.0000 </r>
       <r>   17.6089    0.0000 </r>
       <r>   18.6078    0.0000 </r>
       <r>   18.6079    0.0000 </r>
       <r>   19.0166    0.0000 </r>
       <r>   19.0167    0.0000 </r>
       <r>   19.4115    0.0000 </r>
       <r>   19.4116    0.0000 </r>
       <r>   20.6704    0.0000 </r>
       <r>   20.9095    0.0000 </r>
      </set>
      <set comment="kpoint 11">
       <r>   -7.2245    1.0000 </r>
       <r>   -7.2245    1.0000 </r>
       <r>   -6.9183    1.0000 </r>
       <r>   -6.9183    1.0000 </r>
       <r>   -5.2294    1.0000 </r>
       <r>   -5.2294    1.0000 </r>
       <r>   -4.0936    1.0000 </r>
       <r>   -4.0936    1.0000 </r>
       <r>   -2.8707    1.0000 </r>
       <r>   -2.8707    1.0000 </r>
       <r>    1.7146    1.0000 </r>
       <r>    1.7146    1.0000 </r>
       <r>    2.3362    1.0000 </r>
       <r>    2.3362    1.0000 </r>
       <r>    2.6568    1.0000 </r>
       <r>    2.6568    1.0000 </r>
       <r>    3.1586    1.0000 </r>
       <r>    3.1586    1.0000 </r>
       <r>    3.4352    1.0000 </r>
       <r>    3.4352    1.0000 </r>
       <r>    3.7128    1.0000 </r>
       <r>    3.7129    1.0000 </r>
       <r>    4.3741    1.0000 </r>
       <r>    4.3741    1.0000 </r>
       <r>    4.6501    1.0000 </r>
       <r>    4.6501    1.0000 </r>
       <r>    5.3167    1.0000 </r>
       <r>    5.3167    1.0000 </r>
       <r>    5.7090    0.0000 </r>
       <r>    5.7090    0.0000 </r>
       <r>    6.9177    0.0000 </r>
       <r>    6.9177    0.0000 </r>
       <r>    7.1307    0.0000 </r>
       <r>    7.1307    0.0000 </r>
       <r>    7.8676    0.0000 </r>
       <r>    7.8676    0.0000 </r>
       <r>    8.3021    0.0000 </r>
       <r>    8.3021    0.0000 </r>
       <r>    8.5988    0.0000 </r>
       <r>    8.5988    0.0000 </r>
       <r>    9.8252    0.0000 </r>
       <r>    9.8252    0.0000 </r>
       <r>   10.8091    0.0000 </r>
       <r>   10.8091    0.0000 </r>
       <r>   11.1766    0.0000 </r>
       <r>   11.1766    0.0000 </r>
       <r>   11.2862    0.0000 </r>
       <r>   11.2862    0.0000 </r>
       <r>   11.9600    0.0000 </r>
       <r>   11.9600    0.0000 </r>
       <r>   12.2565    0.0000 </r>
       <r>   12.2565    0.0000 </r>
       <r>   13.0714    0.0000 </r>
       <r>   13.0715    0.0000 </r>
       <r>   13.5553    0.0000 </r>
       <r>   13.5553    0.0000 </r>
       <r>   13.6117    0.0000 </r>
       <r>   13.6117    0.0000 </r>
       <r>   14.1084    0.0000 </r>
       <r>   14.1085    0.0000 </r>
       <r>   14.4738    0.0000 </r>
       <r>   14.4739    0.0000 </r>
       <r>   14.8885    0.0000 </r>
       <r>   14.8885    0.0000 </r>
       <r>   14.9810    0.0000 </r>
       <r>   14.9810    0.0000 </r>
       <r>   15.2252    0.0000 </r>
       <r>   15.2252    0.0000 </r>
       <r>   15.4729    0.0000 </r>
       <r>   15.4729    0.0000 </r>
       <r>   16.4897    0.0000 </r>
       <r>   16.4897    0.0000 </r>
       <r>   16.6533    0.0000 </r>
       <r>   16.6533    0.0000 </r>
       <r>   16.9907    0.0000 </r>
       <r>   16.9907    0.0000 </r>
       <r>   17.1011    0.0000 </r>
       <r>   17.1011    0.0000 </r>
       <r>   17.5433    0.0000 </r>
       <r>   17.5433    0.0000 </r>
       <r>   18.5089    0.0000 </r>
       <r>   18.5089    0.0000 </r>
       <r>   18.9292    0.0000 </r>
       <r>   18.9293    0.0000 </r>
       <r>   19.4575    0.0000 </r>
       <r>   19.4576    0.0000 </r>
       <r>   20.7272    0.0000 </r>
       <r>   20.8275    0.0000 </r>
      </set>
      <set comment="kpoint 12">
       <r>   -7.2567    1.0000 </r>
       <r>   -7.2567    1.0000 </r>
       <r>   -6.9549    1.0000 </r>
       <r>   -6.9549    1.0000 </r>
       <r>   -5.2390    1.0000 </r>
       <r>   -5.2390    1.0000 </r>
       <r>   -4.0849    1.0000 </r>
       <r>   -4.0849    1.0000 </r>
       <r>   -2.8101    1.0000 </r>
       <r>   -2.8101    1.0000 </r>
       <r>    1.7981    1.0000 </r>
       <r>    1.7981    1.0000 </r>
       <r>    2.3674    1.0000 </r>
       <r>    2.3674    1.0000 </r>
       <r>    2.7339    1.0000 </r>
       <r>    2.7339    1.0000 </r>
       <r>    3.2448    1.0000 </r>
       <r>    3.2448    1.0000 </r>
       <r>    3.4779    1.0000 </r>
       <r>    3.4779    1.0000 </r>
       <r>    3.7927    1.0000 </r>
       <r>    3.7927    1.0000 </r>
       <r>    4.3410    1.0000 </r>
       <r>    4.3410    1.0000 </r>
       <r>    4.6392    1.0000 </r>
       <r>    4.6392    1.0000 </r>
       <r>    5.3190    1.0000 </r>
       <r>    5.3191    1.0000 </r>
       <r>    5.7002    0.0000 </r>
       <r>    5.7003    0.0000 </r>
       <r>    6.9058    0.0000 </r>
       <r>    6.9058    0.0000 </r>
       <r>    7.0749    0.0000 </r>
       <r>    7.0749    0.0000 </r>
       <r>    7.8620    0.0000 </r>
       <r>    7.8620    0.0000 </r>
       <r>    8.2080    0.0000 </r>
       <r>    8.2080    0.0000 </r>
       <r>    8.5347    0.0000 </r>
       <r>    8.5347    0.0000 </r>
       <r>    9.8881    0.0000 </r>
       <r>    9.8881    0.0000 </r>
       <r>   10.8460    0.0000 </r>
       <r>   10.8460    0.0000 </r>
       <r>   11.0953    0.0000 </r>
       <r>   11.0953    0.0000 </r>
       <r>   11.3160    0.0000 </r>
       <r>   11.3160    0.0000 </r>
       <r>   11.8625    0.0000 </r>
       <r>   11.8625    0.0000 </r>
       <r>   12.2518    0.0000 </r>
       <r>   12.2518    0.0000 </r>
       <r>   13.0189    0.0000 </r>
       <r>   13.0189    0.0000 </r>
       <r>   13.4441    0.0000 </r>
       <r>   13.4441    0.0000 </r>
       <r>   13.5714    0.0000 </r>
       <r>   13.5714    0.0000 </r>
       <r>   14.0558    0.0000 </r>
       <r>   14.0558    0.0000 </r>
       <r>   14.3210    0.0000 </r>
       <r>   14.3210    0.0000 </r>
       <r>   14.7810    0.0000 </r>
       <r>   14.7810    0.0000 </r>
       <r>   14.8602    0.0000 </r>
       <r>   14.8602    0.0000 </r>
       <r>   15.1191    0.0000 </r>
       <r>   15.1191    0.0000 </r>
       <r>   15.3684    0.0000 </r>
       <r>   15.3684    0.0000 </r>
       <r>   16.5249    0.0000 </r>
       <r>   16.5249    0.0000 </r>
       <r>   16.7634    0.0000 </r>
       <r>   16.7634    0.0000 </r>
       <r>   17.0487    0.0000 </r>
       <r>   17.0488    0.0000 </r>
       <r>   17.1733    0.0000 </r>
       <r>   17.1733    0.0000 </r>
       <r>   17.4385    0.0000 </r>
       <r>   17.4386    0.0000 </r>
       <r>   18.3308    0.0000 </r>
       <r>   18.3308    0.0000 </r>
       <r>   18.7815    0.0000 </r>
       <r>   18.7815    0.0000 </r>
       <r>   19.4762    0.0000 </r>
       <r>   19.4763    0.0000 </r>
       <r>   20.7439    0.0000 </r>
       <r>   20.7800    0.0000 </r>
      </set>
      <set comment="kpoint 13">
       <r>   -7.2697    1.0000 </r>
       <r>   -7.2696    1.0000 </r>
       <r>   -6.9702    1.0000 </r>
       <r>   -6.9702    1.0000 </r>
       <r>   -5.2428    1.0000 </r>
       <r>   -5.2428    1.0000 </r>
       <r>   -4.0816    1.0000 </r>
       <r>   -4.0816    1.0000 </r>
       <r>   -2.7853    1.0000 </r>
       <r>   -2.7853    1.0000 </r>
       <r>    1.8404    1.0000 </r>
       <r>    1.8404    1.0000 </r>
       <r>    2.3809    1.0000 </r>
       <r>    2.3809    1.0000 </r>
       <r>    2.7382    1.0000 </r>
       <r>    2.7382    1.0000 </r>
       <r>    3.2883    1.0000 </r>
       <r>    3.2884    1.0000 </r>
       <r>    3.5153    1.0000 </r>
       <r>    3.5153    1.0000 </r>
       <r>    3.8547    1.0000 </r>
       <r>    3.8548    1.0000 </r>
       <r>    4.3232    1.0000 </r>
       <r>    4.3232    1.0000 </r>
       <r>    4.6071    1.0000 </r>
       <r>    4.6071    1.0000 </r>
       <r>    5.2496    1.0000 </r>
       <r>    5.2496    1.0000 </r>
       <r>    5.7742    0.0000 </r>
       <r>    5.7742    0.0000 </r>
       <r>    6.9081    0.0000 </r>
       <r>    6.9081    0.0000 </r>
       <r>    7.0393    0.0000 </r>
       <r>    7.0393    0.0000 </r>
       <r>    7.8352    0.0000 </r>
       <r>    7.8352    0.0000 </r>
       <r>    8.1844    0.0000 </r>
       <r>    8.1844    0.0000 </r>
       <r>    8.5125    0.0000 </r>
       <r>    8.5125    0.0000 </r>
       <r>    9.9271    0.0000 </r>
       <r>    9.9271    0.0000 </r>
       <r>   10.8551    0.0000 </r>
       <r>   10.8551    0.0000 </r>
       <r>   11.0483    0.0000 </r>
       <r>   11.0483    0.0000 </r>
       <r>   11.3086    0.0000 </r>
       <r>   11.3087    0.0000 </r>
       <r>   11.8309    0.0000 </r>
       <r>   11.8309    0.0000 </r>
       <r>   12.2906    0.0000 </r>
       <r>   12.2907    0.0000 </r>
       <r>   12.9694    0.0000 </r>
       <r>   12.9694    0.0000 </r>
       <r>   13.3803    0.0000 </r>
       <r>   13.3803    0.0000 </r>
       <r>   13.6134    0.0000 </r>
       <r>   13.6135    0.0000 </r>
       <r>   14.0299    0.0000 </r>
       <r>   14.0299    0.0000 </r>
       <r>   14.2414    0.0000 </r>
       <r>   14.2414    0.0000 </r>
       <r>   14.6816    0.0000 </r>
       <r>   14.6816    0.0000 </r>
       <r>   14.7560    0.0000 </r>
       <r>   14.7560    0.0000 </r>
       <r>   15.1207    0.0000 </r>
       <r>   15.1207    0.0000 </r>
       <r>   15.3844    0.0000 </r>
       <r>   15.3844    0.0000 </r>
       <r>   16.4681    0.0000 </r>
       <r>   16.4681    0.0000 </r>
       <r>   16.8208    0.0000 </r>
       <r>   16.8208    0.0000 </r>
       <r>   17.1159    0.0000 </r>
       <r>   17.1159    0.0000 </r>
       <r>   17.2396    0.0000 </r>
       <r>   17.2397    0.0000 </r>
       <r>   17.4092    0.0000 </r>
       <r>   17.4093    0.0000 </r>
       <r>   18.2563    0.0000 </r>
       <r>   18.2563    0.0000 </r>
       <r>   18.7250    0.0000 </r>
       <r>   18.7251    0.0000 </r>
       <r>   19.4454    0.0000 </r>
       <r>   19.4458    0.0000 </r>
       <r>   20.7335    0.0000 </r>
       <r>   20.8545    0.0000 </r>
      </set>
      <set comment="kpoint 14">
       <r>   -7.2064    1.0000 </r>
       <r>   -7.2064    1.0000 </r>
       <r>   -6.8392    1.0000 </r>
       <r>   -6.8392    1.0000 </r>
       <r>   -5.2637    1.0000 </r>
       <r>   -5.2637    1.0000 </r>
       <r>   -4.0573    1.0000 </r>
       <r>   -4.0573    1.0000 </r>
       <r>   -2.9577    1.0000 </r>
       <r>   -2.9577    1.0000 </r>
       <r>    1.6645    1.0000 </r>
       <r>    1.6645    1.0000 </r>
       <r>    2.2238    1.0000 </r>
       <r>    2.2239    1.0000 </r>
       <r>    2.5686    1.0000 </r>
       <r>    2.5687    1.0000 </r>
       <r>    3.0366    1.0000 </r>
       <r>    3.0366    1.0000 </r>
       <r>    3.3537    1.0000 </r>
       <r>    3.3537    1.0000 </r>
       <r>    3.6653    1.0000 </r>
       <r>    3.6653    1.0000 </r>
       <r>    4.4758    1.0000 </r>
       <r>    4.4758    1.0000 </r>
       <r>    4.7090    1.0000 </r>
       <r>    4.7090    1.0000 </r>
       <r>    5.2862    1.0000 </r>
       <r>    5.2862    1.0000 </r>
       <r>    5.7413    0.0000 </r>
       <r>    5.7413    0.0000 </r>
       <r>    6.9445    0.0000 </r>
       <r>    6.9446    0.0000 </r>
       <r>    7.1274    0.0000 </r>
       <r>    7.1274    0.0000 </r>
       <r>    7.7631    0.0000 </r>
       <r>    7.7631    0.0000 </r>
       <r>    8.4381    0.0000 </r>
       <r>    8.4381    0.0000 </r>
       <r>    8.7056    0.0000 </r>
       <r>    8.7056    0.0000 </r>
       <r>    9.7002    0.0000 </r>
       <r>    9.7002    0.0000 </r>
       <r>   10.8253    0.0000 </r>
       <r>   10.8254    0.0000 </r>
       <r>   11.1769    0.0000 </r>
       <r>   11.1770    0.0000 </r>
       <r>   11.4092    0.0000 </r>
       <r>   11.4093    0.0000 </r>
       <r>   12.1008    0.0000 </r>
       <r>   12.1008    0.0000 </r>
       <r>   12.2524    0.0000 </r>
       <r>   12.2525    0.0000 </r>
       <r>   13.2680    0.0000 </r>
       <r>   13.2681    0.0000 </r>
       <r>   13.7581    0.0000 </r>
       <r>   13.7581    0.0000 </r>
       <r>   13.7764    0.0000 </r>
       <r>   13.7765    0.0000 </r>
       <r>   14.0422    0.0000 </r>
       <r>   14.0422    0.0000 </r>
       <r>   14.7218    0.0000 </r>
       <r>   14.7218    0.0000 </r>
       <r>   14.8115    0.0000 </r>
       <r>   14.8115    0.0000 </r>
       <r>   15.1083    0.0000 </r>
       <r>   15.1083    0.0000 </r>
       <r>   15.2800    0.0000 </r>
       <r>   15.2800    0.0000 </r>
       <r>   15.6495    0.0000 </r>
       <r>   15.6495    0.0000 </r>
       <r>   16.2126    0.0000 </r>
       <r>   16.2126    0.0000 </r>
       <r>   16.3846    0.0000 </r>
       <r>   16.3846    0.0000 </r>
       <r>   16.7856    0.0000 </r>
       <r>   16.7856    0.0000 </r>
       <r>   17.1977    0.0000 </r>
       <r>   17.1977    0.0000 </r>
       <r>   17.4791    0.0000 </r>
       <r>   17.4791    0.0000 </r>
       <r>   18.9800    0.0000 </r>
       <r>   18.9801    0.0000 </r>
       <r>   19.3973    0.0000 </r>
       <r>   19.3976    0.0000 </r>
       <r>   19.7309    0.0000 </r>
       <r>   19.7320    0.0000 </r>
       <r>   20.6475    0.0000 </r>
       <r>   20.6862    0.0000 </r>
      </set>
      <set comment="kpoint 15">
       <r>   -7.1908    1.0000 </r>
       <r>   -7.1908    1.0000 </r>
       <r>   -6.8602    1.0000 </r>
       <r>   -6.8602    1.0000 </r>
       <r>   -5.2326    1.0000 </r>
       <r>   -5.2326    1.0000 </r>
       <r>   -4.0912    1.0000 </r>
       <r>   -4.0912    1.0000 </r>
       <r>   -2.9501    1.0000 </r>
       <r>   -2.9501    1.0000 </r>
       <r>    1.6369    1.0000 </r>
       <r>    1.6369    1.0000 </r>
       <r>    2.2642    1.0000 </r>
       <r>    2.2642    1.0000 </r>
       <r>    2.5644    1.0000 </r>
       <r>    2.5644    1.0000 </r>
       <r>    3.0440    1.0000 </r>
       <r>    3.0440    1.0000 </r>
       <r>    3.3755    1.0000 </r>
       <r>    3.3755    1.0000 </r>
       <r>    3.6370    1.0000 </r>
       <r>    3.6371    1.0000 </r>
       <r>    4.4406    1.0000 </r>
       <r>    4.4406    1.0000 </r>
       <r>    4.6806    1.0000 </r>
       <r>    4.6806    1.0000 </r>
       <r>    5.2962    1.0000 </r>
       <r>    5.2962    1.0000 </r>
       <r>    5.7330    0.0000 </r>
       <r>    5.7330    0.0000 </r>
       <r>    6.9346    0.0000 </r>
       <r>    6.9346    0.0000 </r>
       <r>    7.1605    0.0000 </r>
       <r>    7.1605    0.0000 </r>
       <r>    7.8089    0.0000 </r>
       <r>    7.8089    0.0000 </r>
       <r>    8.4448    0.0000 </r>
       <r>    8.4448    0.0000 </r>
       <r>    8.6962    0.0000 </r>
       <r>    8.6963    0.0000 </r>
       <r>    9.7341    0.0000 </r>
       <r>    9.7341    0.0000 </r>
       <r>   10.7913    0.0000 </r>
       <r>   10.7914    0.0000 </r>
       <r>   11.1910    0.0000 </r>
       <r>   11.1910    0.0000 </r>
       <r>   11.3612    0.0000 </r>
       <r>   11.3612    0.0000 </r>
       <r>   12.0989    0.0000 </r>
       <r>   12.0989    0.0000 </r>
       <r>   12.2616    0.0000 </r>
       <r>   12.2617    0.0000 </r>
       <r>   13.1725    0.0000 </r>
       <r>   13.1725    0.0000 </r>
       <r>   13.6619    0.0000 </r>
       <r>   13.6619    0.0000 </r>
       <r>   13.8005    0.0000 </r>
       <r>   13.8005    0.0000 </r>
       <r>   14.1030    0.0000 </r>
       <r>   14.1030    0.0000 </r>
       <r>   14.6833    0.0000 </r>
       <r>   14.6833    0.0000 </r>
       <r>   14.9157    0.0000 </r>
       <r>   14.9158    0.0000 </r>
       <r>   15.1424    0.0000 </r>
       <r>   15.1424    0.0000 </r>
       <r>   15.3413    0.0000 </r>
       <r>   15.3413    0.0000 </r>
       <r>   15.6184    0.0000 </r>
       <r>   15.6184    0.0000 </r>
       <r>   16.3415    0.0000 </r>
       <r>   16.3416    0.0000 </r>
       <r>   16.4751    0.0000 </r>
       <r>   16.4751    0.0000 </r>
       <r>   16.8841    0.0000 </r>
       <r>   16.8841    0.0000 </r>
       <r>   17.0729    0.0000 </r>
       <r>   17.0729    0.0000 </r>
       <r>   17.6168    0.0000 </r>
       <r>   17.6168    0.0000 </r>
       <r>   18.8228    0.0000 </r>
       <r>   18.8228    0.0000 </r>
       <r>   19.2253    0.0000 </r>
       <r>   19.2255    0.0000 </r>
       <r>   19.5406    0.0000 </r>
       <r>   19.5410    0.0000 </r>
       <r>   20.6445    0.0000 </r>
       <r>   20.6655    0.0000 </r>
      </set>
      <set comment="kpoint 16">
       <r>   -7.1626    1.0000 </r>
       <r>   -7.1626    1.0000 </r>
       <r>   -6.8937    1.0000 </r>
       <r>   -6.8937    1.0000 </r>
       <r>   -5.1857    1.0000 </r>
       <r>   -5.1857    1.0000 </r>
       <r>   -4.1384    1.0000 </r>
       <r>   -4.1384    1.0000 </r>
       <r>   -2.9464    1.0000 </r>
       <r>   -2.9464    1.0000 </r>
       <r>    1.5894    1.0000 </r>
       <r>    1.5894    1.0000 </r>
       <r>    2.3454    1.0000 </r>
       <r>    2.3454    1.0000 </r>
       <r>    2.5437    1.0000 </r>
       <r>    2.5437    1.0000 </r>
       <r>    3.0699    1.0000 </r>
       <r>    3.0699    1.0000 </r>
       <r>    3.4093    1.0000 </r>
       <r>    3.4093    1.0000 </r>
       <r>    3.6099    1.0000 </r>
       <r>    3.6099    1.0000 </r>
       <r>    4.3343    1.0000 </r>
       <r>    4.3343    1.0000 </r>
       <r>    4.6323    1.0000 </r>
       <r>    4.6323    1.0000 </r>
       <r>    5.2824    1.0000 </r>
       <r>    5.2824    1.0000 </r>
       <r>    5.7494    0.0000 </r>
       <r>    5.7494    0.0000 </r>
       <r>    6.9258    0.0000 </r>
       <r>    6.9258    0.0000 </r>
       <r>    7.2245    0.0000 </r>
       <r>    7.2245    0.0000 </r>
       <r>    7.9057    0.0000 </r>
       <r>    7.9057    0.0000 </r>
       <r>    8.4384    0.0000 </r>
       <r>    8.4384    0.0000 </r>
       <r>    8.6908    0.0000 </r>
       <r>    8.6909    0.0000 </r>
       <r>    9.8002    0.0000 </r>
       <r>    9.8003    0.0000 </r>
       <r>   10.6913    0.0000 </r>
       <r>   10.6913    0.0000 </r>
       <r>   11.2235    0.0000 </r>
       <r>   11.2235    0.0000 </r>
       <r>   11.3446    0.0000 </r>
       <r>   11.3446    0.0000 </r>
       <r>   12.0310    0.0000 </r>
       <r>   12.0310    0.0000 </r>
       <r>   12.3621    0.0000 </r>
       <r>   12.3621    0.0000 </r>
       <r>   12.9885    0.0000 </r>
       <r>   12.9886    0.0000 </r>
       <r>   13.4638    0.0000 </r>
       <r>   13.4638    0.0000 </r>
       <r>   13.7227    0.0000 </r>
       <r>   13.7227    0.0000 </r>
       <r>   14.3371    0.0000 </r>
       <r>   14.3371    0.0000 </r>
       <r>   14.5928    0.0000 </r>
       <r>   14.5928    0.0000 </r>
       <r>   15.0915    0.0000 </r>
       <r>   15.0916    0.0000 </r>
       <r>   15.1892    0.0000 </r>
       <r>   15.1892    0.0000 </r>
       <r>   15.3277    0.0000 </r>
       <r>   15.3277    0.0000 </r>
       <r>   15.6535    0.0000 </r>
       <r>   15.6535    0.0000 </r>
       <r>   16.5437    0.0000 </r>
       <r>   16.5438    0.0000 </r>
       <r>   16.7021    0.0000 </r>
       <r>   16.7021    0.0000 </r>
       <r>   16.9799    0.0000 </r>
       <r>   16.9799    0.0000 </r>
       <r>   17.1756    0.0000 </r>
       <r>   17.1756    0.0000 </r>
       <r>   17.8629    0.0000 </r>
       <r>   17.8629    0.0000 </r>
       <r>   18.5450    0.0000 </r>
       <r>   18.5451    0.0000 </r>
       <r>   18.9239    0.0000 </r>
       <r>   18.9239    0.0000 </r>
       <r>   19.1465    0.0000 </r>
       <r>   19.1465    0.0000 </r>
       <r>   20.4180    0.0000 </r>
       <r>   20.4742    0.0000 </r>
      </set>
      <set comment="kpoint 17">
       <r>   -7.1520    1.0000 </r>
       <r>   -7.1520    1.0000 </r>
       <r>   -6.9040    1.0000 </r>
       <r>   -6.9040    1.0000 </r>
       <r>   -5.1725    1.0000 </r>
[...]
       <r>    13.6472     0.0000     0.0000 </r>
       <r>    13.7509     0.0000     0.0000 </r>
       <r>    13.8545     0.0000     0.0000 </r>
       <r>    13.9582     0.0000     0.0000 </r>
       <r>    14.0618     0.0000     0.0000 </r>
       <r>    14.1655     0.0000     0.0000 </r>
       <r>    14.2692     0.0000     0.0000 </r>
       <r>    14.3728     0.0000     0.0000 </r>
       <r>    14.4765     0.0000     0.0000 </r>
       <r>    14.5802     0.0000     0.0000 </r>
       <r>    14.6838     0.0000     0.0000 </r>
       <r>    14.7875     0.0000     0.0000 </r>
       <r>    14.8911     0.0000     0.0000 </r>
       <r>    14.9948     0.0000     0.0000 </r>
       <r>    15.0985     0.0000     0.0000 </r>
       <r>    15.2021     0.0000     0.0000 </r>
       <r>    15.3058     0.0000     0.0000 </r>
       <r>    15.4094     0.0000     0.0000 </r>
       <r>    15.5131     0.0000     0.0000 </r>
       <r>    15.6168     0.0000     0.0000 </r>
       <r>    15.7204     0.0000     0.0000 </r>
       <r>    15.8241     0.0000     0.0000 </r>
       <r>    15.9277     0.0000     0.0000 </r>
       <r>    16.0314     0.0000     0.0000 </r>
       <r>    16.1351     0.0000     0.0000 </r>
       <r>    16.2387     0.0000     0.0000 </r>
       <r>    16.3424     0.0000     0.0000 </r>
       <r>    16.4461     0.0000     0.0000 </r>
       <r>    16.5497     0.0000     0.0000 </r>
       <r>    16.6534     0.0000     0.0000 </r>
       <r>    16.7570     0.0000     0.0000 </r>
       <r>    16.8607     0.0000     0.0000 </r>
       <r>    16.9644     0.0000     0.0000 </r>
       <r>    17.0680     0.0000     0.0000 </r>
       <r>    17.1717     0.0000     0.0000 </r>
       <r>    17.2753     0.0000     0.0000 </r>
       <r>    17.3790     0.0000     0.0000 </r>
       <r>    17.4827     0.0000     0.0000 </r>
       <r>    17.5863     0.0000     0.0000 </r>
       <r>    17.6900     0.0000     0.0000 </r>
       <r>    17.7936     0.0000     0.0000 </r>
       <r>    17.8973     0.0000     0.0000 </r>
       <r>    18.0010     0.0000     0.0000 </r>
       <r>    18.1046     0.0000     0.0000 </r>
       <r>    18.2083     0.0000     0.0000 </r>
       <r>    18.3120     0.0000     0.0000 </r>
       <r>    18.4156     0.0000     0.0000 </r>
       <r>    18.5193     0.0000     0.0000 </r>
       <r>    18.6229     0.0000     0.0000 </r>
       <r>    18.7266     0.0000     0.0000 </r>
       <r>    18.8303     0.0000     0.0000 </r>
       <r>    18.9339     0.0000     0.0000 </r>
       <r>    19.0376     0.0000     0.0000 </r>
       <r>    19.1412     0.0000     0.0000 </r>
       <r>    19.2449     0.0000     0.0000 </r>
       <r>    19.3486     0.0000     0.0000 </r>
       <r>    19.4522     0.0000     0.0000 </r>
       <r>    19.5559     0.0000     0.0000 </r>
       <r>    19.6595     0.0000     0.0000 </r>
       <r>    19.7632     0.0000     0.0000 </r>
       <r>    19.8669     0.0000     0.0000 </r>
       <r>    19.9705     0.0000     0.0000 </r>
       <r>    20.0742     0.0000     0.0000 </r>
       <r>    20.1778     0.0000     0.0000 </r>
       <r>    20.2815     0.0000     0.0000 </r>
       <r>    20.3852     0.0000     0.0000 </r>
       <r>    20.4888     0.0000     0.0000 </r>
       <r>    20.5925     0.0000     0.0000 </r>
       <r>    20.6962     0.0000     0.0000 </r>
       <r>    20.7998     0.0000     0.0000 </r>
       <r>    20.9035     0.0000     0.0000 </r>
       <r>    21.0071     0.0000     0.0000 </r>
       <r>    21.1108     0.0000     0.0000 </r>
       <r>    21.2145     0.0000     0.0000 </r>
       <r>    21.3181     0.0000     0.0000 </r>
       <r>    21.4218     0.0000     0.0000 </r>
       <r>    21.5254     0.0000     0.0000 </r>
       <r>    21.6291     0.0000     0.0000 </r>
       <r>    21.7328     0.0000     0.0000 </r>
       <r>    21.8364     0.0000     0.0000 </r>
       <r>    21.9401     0.0000     0.0000 </r>
       <r>    22.0437     0.0000     0.0000 </r>
       <r>    22.1474     0.0000     0.0000 </r>
       <r>    22.2511     0.0000     0.0000 </r>
       <r>    22.3547     0.0000     0.0000 </r>
      </set>
      <set comment="spin 4">
       <r>    -8.7436     0.0000     0.0000 </r>
       <r>    -8.6399     0.0000     0.0000 </r>
       <r>    -8.5363     0.0000     0.0000 </r>
       <r>    -8.4326     0.0000     0.0000 </r>
       <r>    -8.3289     0.0000     0.0000 </r>
       <r>    -8.2253     0.0000     0.0000 </r>
       <r>    -8.1216     0.0000     0.0000 </r>
       <r>    -8.0180     0.0000     0.0000 </r>
       <r>    -7.9143     0.0000     0.0000 </r>
       <r>    -7.8106     0.0000     0.0000 </r>
       <r>    -7.7070     0.0000     0.0000 </r>
       <r>    -7.6033     0.0000     0.0000 </r>
       <r>    -7.4996     0.0000     0.0000 </r>
       <r>    -7.3960     0.0000     0.0000 </r>
       <r>    -7.2923     0.0000     0.0000 </r>
       <r>    -7.1887     0.0000     0.0000 </r>
       <r>    -7.0850     0.0000     0.0000 </r>
       <r>    -6.9813     0.0000     0.0000 </r>
       <r>    -6.8777     0.0000     0.0000 </r>
       <r>    -6.7740     0.0000     0.0000 </r>
       <r>    -6.6704     0.0000     0.0000 </r>
       <r>    -6.5667     0.0000     0.0000 </r>
       <r>    -6.4630     0.0000     0.0000 </r>
       <r>    -6.3594     0.0000     0.0000 </r>
       <r>    -6.2557     0.0000     0.0000 </r>
       <r>    -6.1521     0.0000     0.0000 </r>
       <r>    -6.0484     0.0000     0.0000 </r>
       <r>    -5.9447     0.0000     0.0000 </r>
       <r>    -5.8411     0.0000     0.0000 </r>
       <r>    -5.7374     0.0000     0.0000 </r>
       <r>    -5.6338     0.0000     0.0000 </r>
       <r>    -5.5301     0.0000     0.0000 </r>
       <r>    -5.4264     0.0000     0.0000 </r>
       <r>    -5.3228     0.0000     0.0000 </r>
       <r>    -5.2191     0.0000     0.0000 </r>
       <r>    -5.1154     0.0000     0.0000 </r>
       <r>    -5.0118     0.0000     0.0000 </r>
       <r>    -4.9081     0.0000     0.0000 </r>
       <r>    -4.8045     0.0000     0.0000 </r>
       <r>    -4.7008     0.0000     0.0000 </r>
       <r>    -4.5971     0.0000     0.0000 </r>
       <r>    -4.4935     0.0000     0.0000 </r>
       <r>    -4.3898     0.0000     0.0000 </r>
       <r>    -4.2862     0.0000     0.0000 </r>
       <r>    -4.1825     0.0000     0.0000 </r>
       <r>    -4.0788     0.0000     0.0000 </r>
       <r>    -3.9752     0.0000     0.0000 </r>
       <r>    -3.8715     0.0000     0.0000 </r>
       <r>    -3.7679     0.0000     0.0000 </r>
       <r>    -3.6642     0.0000     0.0000 </r>
       <r>    -3.5605     0.0000     0.0000 </r>
       <r>    -3.4569     0.0000     0.0000 </r>
       <r>    -3.3532     0.0000     0.0000 </r>
       <r>    -3.2495     0.0000     0.0000 </r>
       <r>    -3.1459     0.0000     0.0000 </r>
       <r>    -3.0422     0.0000     0.0000 </r>
       <r>    -2.9386     0.0000     0.0000 </r>
       <r>    -2.8349     0.0000     0.0000 </r>
       <r>    -2.7312     0.0000     0.0000 </r>
       <r>    -2.6276     0.0000     0.0000 </r>
       <r>    -2.5239     0.0000     0.0000 </r>
       <r>    -2.4203     0.0000     0.0000 </r>
       <r>    -2.3166     0.0000     0.0000 </r>
       <r>    -2.2129     0.0000     0.0000 </r>
       <r>    -2.1093     0.0000     0.0000 </r>
       <r>    -2.0056     0.0000     0.0000 </r>
       <r>    -1.9020     0.0000     0.0000 </r>
       <r>    -1.7983     0.0000     0.0000 </r>
       <r>    -1.6946     0.0000     0.0000 </r>
       <r>    -1.5910     0.0000     0.0000 </r>
       <r>    -1.4873     0.0000     0.0000 </r>
       <r>    -1.3836     0.0000     0.0000 </r>
       <r>    -1.2800     0.0000     0.0000 </r>
       <r>    -1.1763     0.0000     0.0000 </r>
       <r>    -1.0727     0.0000     0.0000 </r>
       <r>    -0.9690     0.0000     0.0000 </r>
       <r>    -0.8653     0.0000     0.0000 </r>
       <r>    -0.7617     0.0000     0.0000 </r>
       <r>    -0.6580     0.0000     0.0000 </r>
       <r>    -0.5544     0.0000     0.0000 </r>
       <r>    -0.4507     0.0000     0.0000 </r>
       <r>    -0.3470     0.0000     0.0000 </r>
       <r>    -0.2434     0.0000     0.0000 </r>
       <r>    -0.1397     0.0000     0.0000 </r>
       <r>    -0.0361     0.0000     0.0000 </r>
       <r>     0.0676     0.0000     0.0000 </r>
       <r>     0.1713     0.0000     0.0000 </r>
       <r>     0.2749     0.0000     0.0000 </r>
       <r>     0.3786     0.0000     0.0000 </r>
       <r>     0.4823     0.0000     0.0000 </r>
       <r>     0.5859     0.0000     0.0000 </r>
       <r>     0.6896     0.0000     0.0000 </r>
       <r>     0.7932     0.0000     0.0000 </r>
       <r>     0.8969     0.0000     0.0000 </r>
       <r>     1.0006     0.0000     0.0000 </r>
       <r>     1.1042     0.0000     0.0000 </r>
       <r>     1.2079     0.0000     0.0000 </r>
       <r>     1.3115     0.0000     0.0000 </r>
       <r>     1.4152     0.0000     0.0000 </r>
       <r>     1.5189     0.0000     0.0000 </r>
       <r>     1.6225     0.0000     0.0000 </r>
       <r>     1.7262     0.0000     0.0000 </r>
       <r>     1.8298     0.0000     0.0000 </r>
       <r>     1.9335     0.0000     0.0000 </r>
       <r>     2.0372     0.0000     0.0000 </r>
       <r>     2.1408     0.0000     0.0000 </r>
       <r>     2.2445     0.0000     0.0000 </r>
       <r>     2.3482     0.0000     0.0000 </r>
       <r>     2.4518     0.0000     0.0000 </r>
       <r>     2.5555     0.0000     0.0000 </r>
       <r>     2.6591     0.0000     0.0000 </r>
       <r>     2.7628     0.0000     0.0000 </r>
       <r>     2.8665     0.0000     0.0000 </r>
       <r>     2.9701     0.0000     0.0000 </r>
       <r>     3.0738     0.0000     0.0000 </r>
       <r>     3.1774     0.0000     0.0000 </r>
       <r>     3.2811     0.0000     0.0000 </r>
       <r>     3.3848     0.0000     0.0000 </r>
       <r>     3.4884     0.0000     0.0000 </r>
       <r>     3.5921     0.0000     0.0000 </r>
       <r>     3.6957     0.0000     0.0000 </r>
       <r>     3.7994     0.0000     0.0000 </r>
       <r>     3.9031     0.0000     0.0000 </r>
       <r>     4.0067     0.0000     0.0000 </r>
       <r>     4.1104     0.0000     0.0000 </r>
       <r>     4.2140     0.0000     0.0000 </r>
       <r>     4.3177     0.0000     0.0000 </r>
       <r>     4.4214     0.0000     0.0000 </r>
       <r>     4.5250     0.0000     0.0000 </r>
       <r>     4.6287     0.0000     0.0000 </r>
       <r>     4.7324     0.0000     0.0000 </r>
       <r>     4.8360     0.0000     0.0000 </r>
       <r>     4.9397     0.0000     0.0000 </r>
       <r>     5.0433     0.0000     0.0000 </r>
       <r>     5.1470     0.0000     0.0000 </r>
       <r>     5.2507     0.0000     0.0000 </r>
       <r>     5.3543     0.0000     0.0000 </r>
       <r>     5.4580     0.0000     0.0000 </r>
       <r>     5.5616     0.0000     0.0000 </r>
       <r>     5.6653     0.0000     0.0000 </r>
       <r>     5.7690     0.0000     0.0000 </r>
       <r>     5.8726     0.0000     0.0000 </r>
       <r>     5.9763     0.0000     0.0000 </r>
       <r>     6.0799     0.0000     0.0000 </r>
       <r>     6.1836     0.0000     0.0000 </r>
       <r>     6.2873     0.0000     0.0000 </r>
       <r>     6.3909     0.0000     0.0000 </r>
       <r>     6.4946     0.0000     0.0000 </r>
       <r>     6.5983     0.0000     0.0000 </r>
       <r>     6.7019     0.0000     0.0000 </r>
       <r>     6.8056     0.0000     0.0000 </r>
       <r>     6.9092     0.0000     0.0000 </r>
       <r>     7.0129     0.0000     0.0000 </r>
       <r>     7.1166     0.0000     0.0000 </r>
       <r>     7.2202     0.0000     0.0000 </r>
       <r>     7.3239     0.0000     0.0000 </r>
       <r>     7.4275     0.0000     0.0000 </r>
       <r>     7.5312     0.0000     0.0000 </r>
       <r>     7.6349     0.0000     0.0000 </r>
       <r>     7.7385     0.0000     0.0000 </r>
       <r>     7.8422     0.0000     0.0000 </r>
       <r>     7.9458     0.0000     0.0000 </r>
       <r>     8.0495     0.0000     0.0000 </r>
       <r>     8.1532     0.0000     0.0000 </r>
       <r>     8.2568     0.0000     0.0000 </r>
       <r>     8.3605     0.0000     0.0000 </r>
       <r>     8.4642     0.0000     0.0000 </r>
       <r>     8.5678     0.0000     0.0000 </r>
       <r>     8.6715     0.0000     0.0000 </r>
       <r>     8.7751     0.0000     0.0000 </r>
       <r>     8.8788     0.0000     0.0000 </r>
       <r>     8.9825     0.0000     0.0000 </r>
       <r>     9.0861     0.0000     0.0000 </r>
       <r>     9.1898     0.0000     0.0000 </r>
       <r>     9.2934     0.0000     0.0000 </r>
       <r>     9.3971     0.0000     0.0000 </r>
       <r>     9.5008     0.0000     0.0000 </r>
       <r>     9.6044     0.0000     0.0000 </r>
       <r>     9.7081     0.0000     0.0000 </r>
       <r>     9.8117     0.0000     0.0000 </r>
       <r>     9.9154     0.0000     0.0000 </r>
       <r>    10.0191     0.0000     0.0000 </r>
       <r>    10.1227     0.0000     0.0000 </r>
       <r>    10.2264     0.0000     0.0000 </r>
       <r>    10.3301     0.0000     0.0000 </r>
       <r>    10.4337     0.0000     0.0000 </r>
       <r>    10.5374     0.0000     0.0000 </r>
       <r>    10.6410     0.0000     0.0000 </r>
       <r>    10.7447     0.0000     0.0000 </r>
       <r>    10.8484     0.0000     0.0000 </r>
       <r>    10.9520     0.0000     0.0000 </r>
       <r>    11.0557     0.0000     0.0000 </r>
       <r>    11.1593     0.0000     0.0000 </r>
       <r>    11.2630     0.0000     0.0000 </r>
       <r>    11.3667     0.0000     0.0000 </r>
       <r>    11.4703     0.0000     0.0000 </r>
       <r>    11.5740     0.0000     0.0000 </r>
       <r>    11.6776     0.0000     0.0000 </r>
       <r>    11.7813     0.0000     0.0000 </r>
       <r>    11.8850     0.0000     0.0000 </r>
       <r>    11.9886     0.0000     0.0000 </r>
       <r>    12.0923     0.0000     0.0000 </r>
       <r>    12.1959     0.0000     0.0000 </r>
       <r>    12.2996     0.0000     0.0000 </r>
       <r>    12.4033     0.0000     0.0000 </r>
       <r>    12.5069     0.0000     0.0000 </r>
       <r>    12.6106     0.0000     0.0000 </r>
       <r>    12.7143     0.0000     0.0000 </r>
       <r>    12.8179     0.0000     0.0000 </r>
       <r>    12.9216     0.0000     0.0000 </r>
       <r>    13.0252     0.0000     0.0000 </r>
       <r>    13.1289     0.0000     0.0000 </r>
       <r>    13.2326     0.0000     0.0000 </r>
       <r>    13.3362     0.0000     0.0000 </r>
       <r>    13.4399     0.0000     0.0000 </r>
       <r>    13.5435     0.0000     0.0000 </r>
       <r>    13.6472     0.0000     0.0000 </r>
       <r>    13.7509     0.0000     0.0000 </r>
       <r>    13.8545     0.0000     0.0000 </r>
       <r>    13.9582     0.0000     0.0000 </r>
       <r>    14.0618     0.0000     0.0000 </r>
       <r>    14.1655     0.0000     0.0000 </r>
       <r>    14.2692     0.0000     0.0000 </r>
       <r>    14.3728     0.0000     0.0000 </r>
       <r>    14.4765     0.0000     0.0000 </r>
       <r>    14.5802     0.0000     0.0000 </r>
       <r>    14.6838     0.0000     0.0000 </r>
       <r>    14.7875     0.0000     0.0000 </r>
       <r>    14.8911     0.0000     0.0000 </r>
       <r>    14.9948     0.0000     0.0000 </r>
       <r>    15.0985     0.0000     0.0000 </r>
       <r>    15.2021     0.0000     0.0000 </r>
       <r>    15.3058     0.0000     0.0000 </r>
       <r>    15.4094     0.0000     0.0000 </r>
       <r>    15.5131     0.0000     0.0000 </r>
       <r>    15.6168     0.0000     0.0000 </r>
       <r>    15.7204     0.0000     0.0000 </r>
       <r>    15.8241     0.0000     0.0000 </r>
       <r>    15.9277     0.0000     0.0000 </r>
       <r>    16.0314     0.0000     0.0000 </r>
       <r>    16.1351     0.0000     0.0000 </r>
       <r>    16.2387     0.0000     0.0000 </r>
       <r>    16.3424     0.0000     0.0000 </r>
       <r>    16.4461     0.0000     0.0000 </r>
       <r>    16.5497     0.0000     0.0000 </r>
       <r>    16.6534     0.0000     0.0000 </r>
       <r>    16.7570     0.0000     0.0000 </r>
       <r>    16.8607     0.0000     0.0000 </r>
       <r>    16.9644     0.0000     0.0000 </r>
       <r>    17.0680     0.0000     0.0000 </r>
       <r>    17.1717     0.0000     0.0000 </r>
       <r>    17.2753     0.0000     0.0000 </r>
       <r>    17.3790     0.0000     0.0000 </r>
       <r>    17.4827     0.0000     0.0000 </r>
       <r>    17.5863     0.0000     0.0000 </r>
       <r>    17.6900     0.0000     0.0000 </r>
       <r>    17.7936     0.0000     0.0000 </r>
       <r>    17.8973     0.0000     0.0000 </r>
       <r>    18.0010     0.0000     0.0000 </r>
       <r>    18.1046     0.0000     0.0000 </r>
       <r>    18.2083     0.0000     0.0000 </r>
       <r>    18.3120     0.0000     0.0000 </r>
       <r>    18.4156     0.0000     0.0000 </r>
       <r>    18.5193     0.0000     0.0000 </r>
       <r>    18.6229     0.0000     0.0000 </r>
       <r>    18.7266     0.0000     0.0000 </r>
       <r>    18.8303     0.0000     0.0000 </r>
       <r>    18.9339     0.0000     0.0000 </r>
       <r>    19.0376     0.0000     0.0000 </r>
       <r>    19.1412     0.0000     0.0000 </r>
       <r>    19.2449     0.0000     0.0000 </r>
       <r>    19.3486     0.0000     0.0000 </r>
       <r>    19.4522     0.0000     0.0000 </r>
       <r>    19.5559     0.0000     0.0000 </r>
       <r>    19.6595     0.0000     0.0000 </r>
       <r>    19.7632     0.0000     0.0000 </r>
       <r>    19.8669     0.0000     0.0000 </r>
       <r>    19.9705     0.0000     0.0000 </r>
       <r>    20.0742     0.0000     0.0000 </r>
       <r>    20.1778     0.0000     0.0000 </r>
       <r>    20.2815     0.0000     0.0000 </r>
       <r>    20.3852     0.0000     0.0000 </r>
       <r>    20.4888     0.0000     0.0000 </r>
       <r>    20.5925     0.0000     0.0000 </r>
       <r>    20.6962     0.0000     0.0000 </r>
       <r>    20.7998     0.0000     0.0000 </r>
       <r>    20.9035     0.0000     0.0000 </r>
       <r>    21.0071     0.0000     0.0000 </r>
       <r>    21.1108     0.0000     0.0000 </r>
       <r>    21.2145     0.0000     0.0000 </r>
       <r>    21.3181     0.0000     0.0000 </r>
       <r>    21.4218     0.0000     0.0000 </r>
       <r>    21.5254     0.0000     0.0000 </r>
       <r>    21.6291     0.0000     0.0000 </r>
       <r>    21.7328     0.0000     0.0000 </r>
       <r>    21.8364     0.0000     0.0000 </r>
       <r>    21.9401     0.0000     0.0000 </r>
       <r>    22.0437     0.0000     0.0000 </r>
       <r>    22.1474     0.0000     0.0000 </r>
       <r>    22.2511     0.0000     0.0000 </r>
       <r>    22.3547     0.0000     0.0000 </r>
      </set>
     </set>
    </array>
   </total>
  </dos>
 </calculation>
 <structure name="finalpos" >
  <crystal>
   <varray name="basis" >
    <v>      10.22228271      -2.21667734       0.00000000 </v>
    <v>      10.22228271       2.21667734       0.00000000 </v>
    <v>       9.74160157       0.00000000       3.80918902 </v>
   </varray>
   <i name="volume">    172.62865583 </i>
   <varray name="rec_basis" >
    <v>       0.04891275      -0.22556282      -0.12508924 </v>
    <v>       0.04891275       0.22556282      -0.12508924 </v>
    <v>      -0.00000000       0.00000000       0.26252307 </v>
   </varray>
  </crystal>
  <varray name="positions" >
   <v>       0.39979833       0.39979833       0.39979833 </v>
   <v>       0.60020167       0.60020167       0.60020167 </v>
   <v>       0.00000000       0.00000000       0.00000000 </v>
   <v>       0.21048582       0.21048582       0.21048582 </v>
   <v>       0.78951418       0.78951418       0.78951418 </v>
  </varray>
 </structure>
</modeling>
