    2    2    1    1
  0.3542691E+02  0.4644719E-09  0.4644719E-09  0.4644719E-09  0.5000000E-15
   1.0000000000000000E-004
  CAR 
 PbTe                                    
     20     61     60

  0.5000000E+00  0.5000000E+00  0.5000000E+00  0.1639344E-01
    1      -13.068676   1.000000
    2      -13.068674   1.000000
    3      -13.062503   1.000000
    4      -13.062502   1.000000
    5      -10.524023   1.000000
    6      -10.524022   1.000000
    7      -10.505006   1.000000
    8      -10.505006   1.000000
    9      -10.494294   1.000000
   10      -10.494293   1.000000
   11       -5.356295   1.000000
   12       -5.356293   1.000000
   13       -3.278755   1.000000
   14       -3.278755   1.000000
   15        3.877490   1.000000
   16        3.877492   1.000000
   17        4.472483   1.000000
   18        4.472489   1.000000
   19        5.071862   1.000000
   20        5.071867   1.000000
   21        5.203462   0.000000
   22        5.203466   0.000000
   23        6.391297   0.000000
   24        6.391298   0.000000
   25        6.870549   0.000000
   26        6.870558   0.000000
   27       13.329236   0.000000
   28       13.329244   0.000000
   29       13.898765   0.000000
   30       13.898782   0.000000
   31       14.320054   0.000000
   32       14.320060   0.000000
   33       14.408807   0.000000
   34       14.408819   0.000000
   35       15.482643   0.000000
   36       15.482668   0.000000
   37       15.497694   0.000000
   38       15.497716   0.000000
   39       19.046655   0.000000
   40       19.046668   0.000000
   41       19.567829   0.000000
   42       19.567843   0.000000
   43       20.869572   0.000000
   44       20.869573   0.000000
   45       21.133779   0.000000
   46       21.133786   0.000000
   47       21.146672   0.000000
   48       21.146677   0.000000
   49       21.305864   0.000000
   50       21.305873   0.000000
   51       21.846465   0.000000
   52       21.846470   0.000000
   53       23.427054   0.000000
   54       23.427540   0.000000
   55       25.733051   0.000000
   56       25.749564   0.000000
   57       25.852190   0.000000
   58       25.897997   0.000000
   59       25.955975   0.000000
   60       26.071614   0.000000

  0.5000000E+00  0.4802443E+00  0.4802443E+00  0.1639344E-01
    1      -13.068668   1.000000
    2      -13.068666   1.000000
    3      -13.062526   1.000000
    4      -13.062526   1.000000
    5      -10.524004   1.000000
    6      -10.524002   1.000000
    7      -10.505090   1.000000
    8      -10.505089   1.000000
    9      -10.494299   1.000000
   10      -10.494299   1.000000
   11       -5.358951   1.000000
   12       -5.358949   1.000000
   13       -3.270502   1.000000
   14       -3.270501   1.000000
   15        3.856187   1.000000
   16        3.856190   1.000000
   17        4.428386   1.000000
   18        4.428391   1.000000
   19        4.983623   1.000000
   20        4.983625   1.000000
   21        5.313196   0.000000
   22        5.313198   0.000000
   23        6.423776   0.000000
   24        6.423776   0.000000
   25        6.903356   0.000000
   26        6.903365   0.000000
   27       13.247937   0.000000
   28       13.247982   0.000000
   29       13.911744   0.000000
   30       13.911764   0.000000
   31       14.278816   0.000000
   32       14.278843   0.000000
   33       14.414067   0.000000
   34       14.414094   0.000000
   35       15.526892   0.000000
   36       15.526919   0.000000
   37       15.585952   0.000000
   38       15.585967   0.000000
   39       18.995241   0.000000
   40       18.995253   0.000000
   41       19.509975   0.000000
   42       19.509988   0.000000
   43       20.696648   0.000000
   44       20.696651   0.000000
   45       21.091566   0.000000
   46       21.091572   0.000000
   47       21.283793   0.000000
   48       21.283798   0.000000
   49       21.423033   0.000000
   50       21.423034   0.000000
   51       21.875104   0.000000
   52       21.875105   0.000000
   53       23.502912   0.000000
   54       23.503197   0.000000
   55       25.421021   0.000000
   56       25.450070   0.000000
   57       25.808727   0.000000
   58       25.860864   0.000000
   59       26.037051   0.000000
   60       26.120255   0.000000

  0.5000000E+00  0.4901221E+00  0.4901221E+00  0.1639344E-01
    1      -13.068674   1.000000
    2      -13.068672   1.000000
    3      -13.062509   1.000000
    4      -13.062508   1.000000
    5      -10.524018   1.000000
    6      -10.524017   1.000000
    7      -10.505027   1.000000
    8      -10.505027   1.000000
    9      -10.494295   1.000000
   10      -10.494294   1.000000
   11       -5.356963   1.000000
   12       -5.356960   1.000000
   13       -3.276684   1.000000
   14       -3.276684   1.000000
   15        3.872298   1.000000
   16        3.872301   1.000000
   17        4.461067   1.000000
   18        4.461072   1.000000
   19        5.038574   1.000000
   20        5.038577   1.000000
   21        5.242266   0.000000
   22        5.242269   0.000000
   23        6.399703   0.000000
   24        6.399704   0.000000
   25        6.878590   0.000000
   26        6.878599   0.000000
   27       13.307387   0.000000
   28       13.307402   0.000000
   29       13.903965   0.000000
   30       13.904005   0.000000
   31       14.312507   0.000000
   32       14.312772   0.000000
   33       14.405693   0.000000
   34       14.405729   0.000000
   35       15.496929   0.000000
   36       15.496930   0.000000
   37       15.518058   0.000000
   38       15.518183   0.000000
   39       19.034446   0.000000
   40       19.034458   0.000000
   41       19.551961   0.000000
   42       19.551971   0.000000
   43       20.811232   0.000000
   44       20.811233   0.000000
   45       21.096018   0.000000
   46       21.096030   0.000000
   47       21.238940   0.000000
   48       21.238942   0.000000
   49       21.321876   0.000000
   50       21.321883   0.000000
   51       21.851629   0.000000
   52       21.851634   0.000000
   53       23.446035   0.000000
   54       23.446088   0.000000
   55       25.619769   0.000000
   56       25.671434   0.000000
   57       25.794609   0.000000
   58       25.937755   0.000000
   59       25.987329   0.000000
   60       26.194320   0.000000

  0.5000000E+00  0.5098779E+00  0.5098779E+00  0.1639344E-01
    1      -13.068674   1.000000
    2      -13.068672   1.000000
    3      -13.062509   1.000000
    4      -13.062508   1.000000
    5      -10.524018   1.000000
    6      -10.524017   1.000000
    7      -10.505027   1.000000
    8      -10.505027   1.000000
    9      -10.494295   1.000000
   10      -10.494294   1.000000
   11       -5.356963   1.000000
   12       -5.356960   1.000000
   13       -3.276684   1.000000
   14       -3.276684   1.000000
   15        3.872298   1.000000
   16        3.872301   1.000000
   17        4.461067   1.000000
   18        4.461072   1.000000
   19        5.038574   1.000000
   20        5.038577   1.000000
   21        5.242266   0.000000
   22        5.242269   0.000000
   23        6.399703   0.000000
   24        6.399704   0.000000
   25        6.878590   0.000000
   26        6.878599   0.000000
   27       13.307396   0.000000
   28       13.307460   0.000000
   29       13.903926   0.000000
   30       13.903957   0.000000
   31       14.312507   0.000000
   32       14.312578   0.000000
   33       14.405668   0.000000
   34       14.405689   0.000000
   35       15.496825   0.000000
   36       15.496839   0.000000
   37       15.517967   0.000000
   38       15.517983   0.000000
   39       19.034445   0.000000
   40       19.034458   0.000000
   41       19.551959   0.000000
   42       19.551972   0.000000
   43       20.811231   0.000000
   44       20.811231   0.000000
   45       21.096019   0.000000
   46       21.096024   0.000000
   47       21.238936   0.000000
   48       21.238940   0.000000
   49       21.321881   0.000000
   50       21.321881   0.000000
   51       21.851631   0.000000
   52       21.851631   0.000000
   53       23.445936   0.000000
   54       23.446330   0.000000
   55       25.591865   0.000000
   56       25.690999   0.000000
   57       25.798498   0.000000
   58       25.842634   0.000000
   59       25.933226   0.000000
   60       26.078220   0.000000

  0.5000000E+00  0.5197557E+00  0.5197557E+00  0.1639344E-01
    1      -13.068668   1.000000
    2      -13.068666   1.000000
    3      -13.062526   1.000000
    4      -13.062526   1.000000
    5      -10.524004   1.000000
    6      -10.524002   1.000000
    7      -10.505090   1.000000
    8      -10.505089   1.000000
    9      -10.494299   1.000000
   10      -10.494299   1.000000
   11       -5.358951   1.000000
   12       -5.358949   1.000000
   13       -3.270502   1.000000
   14       -3.270501   1.000000
   15        3.856187   1.000000
   16        3.856190   1.000000
   17        4.428386   1.000000
   18        4.428391   1.000000
   19        4.983623   1.000000
   20        4.983625   1.000000
   21        5.313196   0.000000
   22        5.313198   0.000000
   23        6.423776   0.000000
   24        6.423776   0.000000
   25        6.903356   0.000000
   26        6.903365   0.000000
   27       13.247937   0.000000
   28       13.247951   0.000000
   29       13.911737   0.000000
   30       13.911882   0.000000
   31       14.278748   0.000000
   32       14.278863   0.000000
   33       14.414070   0.000000
   34       14.414084   0.000000
   35       15.526887   0.000000
   36       15.526903   0.000000
   37       15.585951   0.000000
   38       15.585965   0.000000
   39       18.995241   0.000000
   40       18.995253   0.000000
   41       19.509975   0.000000
   42       19.509988   0.000000
   43       20.696650   0.000000
   44       20.696650   0.000000
   45       21.091568   0.000000
   46       21.091571   0.000000
   47       21.283796   0.000000
   48       21.283802   0.000000
   49       21.423032   0.000000
   50       21.423033   0.000000
   51       21.875103   0.000000
   52       21.875103   0.000000
   53       23.502700   0.000000
   54       23.502994   0.000000
   55       25.420036   0.000000
   56       25.457975   0.000000
   57       25.735204   0.000000
   58       25.806024   0.000000
   59       25.934980   0.000000
   60       26.084462   0.000000

  0.4802443E+00  0.5000000E+00  0.4802443E+00  0.1639344E-01
    1      -13.068668   1.000000
    2      -13.068666   1.000000
    3      -13.062526   1.000000
    4      -13.062526   1.000000
    5      -10.524004   1.000000
    6      -10.524002   1.000000
    7      -10.505090   1.000000
    8      -10.505089   1.000000
    9      -10.494299   1.000000
   10      -10.494299   1.000000
   11       -5.358951   1.000000
   12       -5.358949   1.000000
   13       -3.270502   1.000000
   14       -3.270501   1.000000
   15        3.856187   1.000000
   16        3.856190   1.000000
   17        4.428386   1.000000
   18        4.428391   1.000000
   19        4.983623   1.000000
   20        4.983625   1.000000
   21        5.313196   0.000000
   22        5.313198   0.000000
   23        6.423776   0.000000
   24        6.423776   0.000000
   25        6.903356   0.000000
   26        6.903365   0.000000
   27       13.247937   0.000000
   28       13.247950   0.000000
   29       13.911730   0.000000
   30       13.911747   0.000000
   31       14.278737   0.000000
   32       14.278753   0.000000
   33       14.414078   0.000000
   34       14.414084   0.000000
   35       15.526885   0.000000
   36       15.526904   0.000000
   37       15.585948   0.000000
   38       15.585974   0.000000
   39       18.995241   0.000000
   40       18.995253   0.000000
   41       19.509975   0.000000
   42       19.509988   0.000000
   43       20.696648   0.000000
   44       20.696651   0.000000
   45       21.091566   0.000000
   46       21.091572   0.000000
   47       21.283795   0.000000
   48       21.283796   0.000000
   49       21.423031   0.000000
   50       21.423034   0.000000
   51       21.875101   0.000000
   52       21.875103   0.000000
   53       23.502800   0.000000
   54       23.503120   0.000000
   55       25.443666   0.000000
   56       25.597180   0.000000
   57       25.760462   0.000000
   58       25.933088   0.000000
   59       26.229588   0.000000
   60       26.336195   0.000000

  0.4901221E+00  0.5000000E+00  0.4901221E+00  0.1639344E-01
    1      -13.068674   1.000000
    2      -13.068672   1.000000
    3      -13.062509   1.000000
    4      -13.062508   1.000000
    5      -10.524018   1.000000
    6      -10.524017   1.000000
    7      -10.505027   1.000000
    8      -10.505027   1.000000
    9      -10.494295   1.000000
   10      -10.494294   1.000000
   11       -5.356963   1.000000
   12       -5.356960   1.000000
   13       -3.276684   1.000000
   14       -3.276684   1.000000
   15        3.872298   1.000000
   16        3.872301   1.000000
   17        4.461067   1.000000
   18        4.461072   1.000000
   19        5.038574   1.000000
   20        5.038577   1.000000
   21        5.242266   0.000000
   22        5.242269   0.000000
   23        6.399703   0.000000
   24        6.399704   0.000000
   25        6.878590   0.000000
   26        6.878599   0.000000
   27       13.307390   0.000000
   28       13.307399   0.000000
   29       13.903926   0.000000
   30       13.903950   0.000000
   31       14.312490   0.000000
   32       14.312505   0.000000
   33       14.405700   0.000000
   34       14.405739   0.000000
   35       15.496837   0.000000
   36       15.496849   0.000000
   37       15.517981   0.000000
   38       15.518013   0.000000
   39       19.034447   0.000000
   40       19.034457   0.000000
   41       19.551959   0.000000
   42       19.551972   0.000000
   43       20.811231   0.000000
   44       20.811231   0.000000
   45       21.096017   0.000000
   46       21.096025   0.000000
   47       21.238937   0.000000
   48       21.238938   0.000000
   49       21.321877   0.000000
   50       21.321882   0.000000
   51       21.851635   0.000000
   52       21.851640   0.000000
   53       23.446234   0.000000
   54       23.446274   0.000000
   55       25.598799   0.000000
   56       25.654657   0.000000
   57       25.789941   0.000000
   58       25.931434   0.000000
   59       26.160323   0.000000
   60       26.345911   0.000000

  0.5098779E+00  0.5000000E+00  0.5098779E+00  0.1639344E-01
    1      -13.068674   1.000000
    2      -13.068672   1.000000
    3      -13.062509   1.000000
    4      -13.062508   1.000000
    5      -10.524018   1.000000
    6      -10.524017   1.000000
    7      -10.505027   1.000000
    8      -10.505027   1.000000
    9      -10.494295   1.000000
   10      -10.494294   1.000000
   11       -5.356963   1.000000
   12       -5.356960   1.000000
   13       -3.276684   1.000000
   14       -3.276684   1.000000
   15        3.872298   1.000000
   16        3.872301   1.000000
   17        4.461067   1.000000
   18        4.461072   1.000000
   19        5.038574   1.000000
   20        5.038577   1.000000
   21        5.242266   0.000000
   22        5.242269   0.000000
   23        6.399703   0.000000
   24        6.399704   0.000000
   25        6.878590   0.000000
   26        6.878599   0.000000
   27       13.307381   0.000000
   28       13.307399   0.000000
   29       13.903922   0.000000
   30       13.903941   0.000000
   31       14.312489   0.000000
   32       14.312502   0.000000
   33       14.405678   0.000000
   34       14.405706   0.000000
   35       15.496833   0.000000
   36       15.496851   0.000000
   37       15.517974   0.000000
   38       15.518002   0.000000
   39       19.034446   0.000000
   40       19.034458   0.000000
   41       19.551959   0.000000
   42       19.551972   0.000000
   43       20.811231   0.000000
   44       20.811231   0.000000
   45       21.096018   0.000000
   46       21.096025   0.000000
   47       21.238935   0.000000
   48       21.238940   0.000000
   49       21.321876   0.000000
   50       21.321883   0.000000
   51       21.851629   0.000000
   52       21.851635   0.000000
   53       23.445883   0.000000
   54       23.446013   0.000000
   55       25.597094   0.000000
   56       25.661112   0.000000
   57       25.763463   0.000000
   58       25.871225   0.000000
   59       26.031491   0.000000
   60       26.421888   0.000000

  0.5197557E+00  0.5000000E+00  0.5197557E+00  0.1639344E-01
    1      -13.068668   1.000000
    2      -13.068666   1.000000
    3      -13.062526   1.000000
    4      -13.062526   1.000000
    5      -10.524004   1.000000
    6      -10.524002   1.000000
    7      -10.505090   1.000000
    8      -10.505089   1.000000
    9      -10.494299   1.000000
   10      -10.494299   1.000000
   11       -5.358951   1.000000
   12       -5.358949   1.000000
   13       -3.270502   1.000000
   14       -3.270501   1.000000
   15        3.856187   1.000000
   16        3.856190   1.000000
   17        4.428386   1.000000
   18        4.428391   1.000000
   19        4.983623   1.000000
   20        4.983625   1.000000
   21        5.313196   0.000000
   22        5.313198   0.000000
   23        6.423776   0.000000
   24        6.423776   0.000000
   25        6.903356   0.000000
   26        6.903365   0.000000
   27       13.247939   0.000000
   28       13.247954   0.000000
   29       13.911761   0.000000
   30       13.911783   0.000000
   31       14.278771   0.000000
   32       14.278804   0.000000
   33       14.414095   0.000000
   34       14.414096   0.000000
   35       15.526902   0.000000
   36       15.526917   0.000000
   37       15.585960   0.000000
   38       15.585972   0.000000
   39       18.995241   0.000000
   40       18.995253   0.000000
   41       19.509975   0.000000
   42       19.509988   0.000000
   43       20.696649   0.000000
   44       20.696651   0.000000
   45       21.091571   0.000000
   46       21.091573   0.000000
   47       21.283798   0.000000
   48       21.283808   0.000000
   49       21.423031   0.000000
   50       21.423034   0.000000
   51       21.875101   0.000000
   52       21.875102   0.000000
   53       23.502730   0.000000
   54       23.502928   0.000000
   55       25.433820   0.000000
   56       25.469958   0.000000
   57       25.730954   0.000000
   58       25.751994   0.000000
   59       25.882787   0.000000
   60       26.031757   0.000000

  0.4802443E+00  0.4802443E+00  0.5000000E+00  0.1639344E-01
    1      -13.068668   1.000000
    2      -13.068666   1.000000
    3      -13.062526   1.000000
    4      -13.062526   1.000000
    5      -10.524004   1.000000
    6      -10.524002   1.000000
    7      -10.505090   1.000000
    8      -10.505089   1.000000
    9      -10.494299   1.000000
   10      -10.494299   1.000000
   11       -5.358951   1.000000
   12       -5.358949   1.000000
   13       -3.270502   1.000000
   14       -3.270501   1.000000
   15        3.856187   1.000000
   16        3.856190   1.000000
   17        4.428386   1.000000
   18        4.428391   1.000000
   19        4.983623   1.000000
   20        4.983625   1.000000
   21        5.313196   0.000000
   22        5.313198   0.000000
   23        6.423776   0.000000
   24        6.423776   0.000000
   25        6.903356   0.000000
   26        6.903365   0.000000
   27       13.247948   0.000000
   28       13.247951   0.000000
   29       13.911823   0.000000
   30       13.912062   0.000000
   31       14.278821   0.000000
   32       14.278828   0.000000
   33       14.414089   0.000000
   34       14.414148   0.000000
   35       15.527004   0.000000
   36       15.527019   0.000000
   37       15.586064   0.000000
   38       15.586077   0.000000
   39       18.995243   0.000000
   40       18.995251   0.000000
   41       19.509975   0.000000
   42       19.509987   0.000000
   43       20.696649   0.000000
   44       20.696650   0.000000
   45       21.091566   0.000000
   46       21.091572   0.000000
   47       21.283793   0.000000
   48       21.283797   0.000000
   49       21.423031   0.000000
   50       21.423034   0.000000
   51       21.875103   0.000000
   52       21.875105   0.000000
   53       23.502740   0.000000
   54       23.503225   0.000000
   55       25.435884   0.000000
   56       25.468861   0.000000
   57       25.705934   0.000000
   58       25.785096   0.000000
   59       25.995112   0.000000
   60       26.184475   0.000000

  0.4901221E+00  0.4901221E+00  0.5000000E+00  0.1639344E-01
    1      -13.068674   1.000000
    2      -13.068672   1.000000
    3      -13.062509   1.000000
    4      -13.062508   1.000000
    5      -10.524018   1.000000
    6      -10.524017   1.000000
    7      -10.505027   1.000000
    8      -10.505027   1.000000
    9      -10.494295   1.000000
   10      -10.494294   1.000000
   11       -5.356963   1.000000
   12       -5.356960   1.000000
   13       -3.276684   1.000000
   14       -3.276684   1.000000
   15        3.872298   1.000000
   16        3.872301   1.000000
   17        4.461067   1.000000
   18        4.461072   1.000000
   19        5.038574   1.000000
   20        5.038577   1.000000
   21        5.242266   0.000000
   22        5.242269   0.000000
   23        6.399703   0.000000
   24        6.399704   0.000000
   25        6.878590   0.000000
   26        6.878599   0.000000
   27       13.307381   0.000000
   28       13.307397   0.000000
   29       13.903932   0.000000
   30       13.903938   0.000000
   31       14.312487   0.000000
   32       14.312498   0.000000
   33       14.405716   0.000000
   34       14.405721   0.000000
   35       15.496830   0.000000
   36       15.496846   0.000000
   37       15.517980   0.000000
   38       15.518000   0.000000
   39       19.034446   0.000000
   40       19.034458   0.000000
   41       19.551959   0.000000
   42       19.551972   0.000000
   43       20.811231   0.000000
   44       20.811231   0.000000
   45       21.096019   0.000000
   46       21.096024   0.000000
   47       21.238938   0.000000
   48       21.238938   0.000000
   49       21.321876   0.000000
   50       21.321882   0.000000
   51       21.851630   0.000000
   52       21.851632   0.000000
   53       23.445927   0.000000
   54       23.445986   0.000000
   55       25.600258   0.000000
   56       25.653998   0.000000
   57       25.865080   0.000000
   58       25.914051   0.000000
   59       26.077186   0.000000
   60       26.313235   0.000000

  0.5098779E+00  0.5098779E+00  0.5000000E+00  0.1639344E-01
    1      -13.068674   1.000000
    2      -13.068672   1.000000
    3      -13.062509   1.000000
    4      -13.062508   1.000000
    5      -10.524018   1.000000
    6      -10.524017   1.000000
    7      -10.505027   1.000000
    8      -10.505027   1.000000
    9      -10.494295   1.000000
   10      -10.494294   1.000000
   11       -5.356963   1.000000
   12       -5.356960   1.000000
   13       -3.276684   1.000000
   14       -3.276684   1.000000
   15        3.872298   1.000000
   16        3.872301   1.000000
   17        4.461067   1.000000
   18        4.461072   1.000000
   19        5.038574   1.000000
   20        5.038577   1.000000
   21        5.242266   0.000000
   22        5.242269   0.000000
   23        6.399703   0.000000
   24        6.399704   0.000000
   25        6.878590   0.000000
   26        6.878599   0.000000
   27       13.307387   0.000000
   28       13.307403   0.000000
   29       13.903921   0.000000
   30       13.903943   0.000000
   31       14.312485   0.000000
   32       14.312509   0.000000
   33       14.405667   0.000000
   34       14.405679   0.000000
   35       15.496824   0.000000
   36       15.496837   0.000000
   37       15.517968   0.000000
   38       15.517985   0.000000
   39       19.034445   0.000000
   40       19.034459   0.000000
   41       19.551959   0.000000
   42       19.551972   0.000000
   43       20.811231   0.000000
   44       20.811231   0.000000
   45       21.096021   0.000000
   46       21.096023   0.000000
   47       21.238936   0.000000
   48       21.238940   0.000000
   49       21.321877   0.000000
   50       21.321884   0.000000
   51       21.851630   0.000000
   52       21.851631   0.000000
   53       23.445907   0.000000
   54       23.445997   0.000000
   55       25.614712   0.000000
   56       25.676802   0.000000
   57       25.780428   0.000000
   58       25.853451   0.000000
   59       26.064943   0.000000
   60       26.389165   0.000000

  0.5197557E+00  0.5197557E+00  0.5000000E+00  0.1639344E-01
    1      -13.068668   1.000000
    2      -13.068666   1.000000
    3      -13.062526   1.000000
    4      -13.062526   1.000000
    5      -10.524004   1.000000
    6      -10.524002   1.000000
    7      -10.505090   1.000000
    8      -10.505089   1.000000
    9      -10.494299   1.000000
   10      -10.494299   1.000000
   11       -5.358951   1.000000
   12       -5.358949   1.000000
   13       -3.270502   1.000000
   14       -3.270501   1.000000
   15        3.856187   1.000000
   16        3.856190   1.000000
   17        4.428386   1.000000
   18        4.428391   1.000000
   19        4.983623   1.000000
   20        4.983625   1.000000
   21        5.313196   0.000000
   22        5.313198   0.000000
   23        6.423776   0.000000
   24        6.423776   0.000000
   25        6.903356   0.000000
   26        6.903365   0.000000
   27       13.247933   0.000000
   28       13.247954   0.000000
   29       13.911730   0.000000
   30       13.911747   0.000000
   31       14.278738   0.000000
   32       14.278750   0.000000
   33       14.414071   0.000000
   34       14.414081   0.000000
   35       15.526885   0.000000
   36       15.526901   0.000000
   37       15.585948   0.000000
   38       15.585965   0.000000
   39       18.995241   0.000000
   40       18.995253   0.000000
   41       19.509975   0.000000
   42       19.509987   0.000000
   43       20.696649   0.000000
   44       20.696650   0.000000
   45       21.091569   0.000000
   46       21.091571   0.000000
   47       21.283793   0.000000
   48       21.283797   0.000000
   49       21.423033   0.000000
   50       21.423034   0.000000
   51       21.875101   0.000000
   52       21.875115   0.000000
   53       23.502741   0.000000
   54       23.502918   0.000000
   55       25.418609   0.000000
   56       25.436368   0.000000
   57       25.785633   0.000000
   58       25.908994   0.000000
   59       26.032677   0.000000
   60       26.249226   0.000000

  0.4802443E+00  0.4802443E+00  0.4604885E+00  0.1639344E-01
    1      -13.068660   1.000000
    2      -13.068658   1.000000
    3      -13.062550   1.000000
    4      -13.062550   1.000000
    5      -10.523939   1.000000
    6      -10.523938   1.000000
    7      -10.505124   1.000000
    8      -10.505123   1.000000
    9      -10.494353   1.000000
   10      -10.494353   1.000000
   11       -5.371647   1.000000
   12       -5.371645   1.000000
   13       -3.252471   1.000000
   14       -3.252471   1.000000
   15        3.850553   1.000000
   16        3.850556   1.000000
   17        4.426560   1.000000
   18        4.426565   1.000000
   19        4.968944   1.000000
   20        4.968946   1.000000
   21        5.333241   0.000000
   22        5.333243   0.000000
   23        6.437458   0.000000
   24        6.437458   0.000000
   25        6.913136   0.000000
   26        6.913145   0.000000
   27       13.133496   0.000000
   28       13.133504   0.000000
   29       13.956236   0.000000
   30       13.956254   0.000000
   31       14.221129   0.000000
   32       14.221288   0.000000
   33       14.410612   0.000000
   34       14.410616   0.000000
   35       15.538690   0.000000
   36       15.538707   0.000000
   37       15.731921   0.000000
   38       15.731934   0.000000
   39       18.907160   0.000000
   40       18.907173   0.000000
   41       19.410775   0.000000
   42       19.410787   0.000000
   43       20.404970   0.000000
   44       20.404974   0.000000
   45       21.129747   0.000000
   46       21.129753   0.000000
   47       21.452533   0.000000
   48       21.452540   0.000000
   49       21.590669   0.000000
   50       21.590672   0.000000
   51       21.828322   0.000000
   52       21.828327   0.000000
   53       23.686052   0.000000
   54       23.686344   0.000000
   55       25.360555   0.000000
   56       25.461388   0.000000
   57       25.668547   0.000000
   58       25.839088   0.000000
   59       25.908701   0.000000
   60       26.250481   0.000000

  0.4802443E+00  0.4901221E+00  0.4703664E+00  0.1639344E-01
    1      -13.068666   1.000000
    2      -13.068664   1.000000
    3      -13.062533   1.000000
    4      -13.062532   1.000000
    5      -10.523976   1.000000
    6      -10.523975   1.000000
    7      -10.505087   1.000000
    8      -10.505086   1.000000
    9      -10.494326   1.000000
   10      -10.494325   1.000000
   11       -5.364684   1.000000
   12       -5.364681   1.000000
   13       -3.263500   1.000000
   14       -3.263500   1.000000
   15        3.858425   1.000000
   16        3.858427   1.000000
   17        4.437964   1.000000
   18        4.437970   1.000000
   19        4.993229   1.000000
   20        4.993231   1.000000
   21        5.301386   0.000000
   22        5.301388   0.000000
   23        6.422492   0.000000
   24        6.422493   0.000000
   25        6.900373   0.000000
   26        6.900382   0.000000
   27       13.205928   0.000000
   28       13.205943   0.000000
   29       13.938096   0.000000
   30       13.938111   0.000000
   31       14.255517   0.000000
   32       14.255536   0.000000
   33       14.407714   0.000000
   34       14.407726   0.000000
   35       15.524841   0.000000