<?xml version="1.0" encoding="ISO-8859-1"?>
<modeling>
 <generator>
  <i name="program" type="string">vasp </i>
  <i name="version" type="string">5.4.4.18Apr17-6-g9f103f2a35  </i>
  <i name="subversion" type="string">(build Mar 20 2018 18:07:30) complex            parallel </i>
  <i name="platform" type="string">LinuxGNU </i>
  <i name="date" type="string">2020 07 03 </i>
  <i name="time" type="string">13:29:15 </i>
 </generator>
 <incar>
  <i type="string" name="SYSTEM"> PbTe</i>
  <i type="int" name="ISTART">     1</i>
  <i type="string" name="PREC">accurate</i>
  <i type="string" name="ALGO"> A</i>
  <i type="logical" name="ADDGRID"> T  </i>
  <i type="logical" name="LSORBIT"> T  </i>
  <i type="int" name="ISPIN">     1</i>
  <i type="int" name="ICHARG">    11</i>
  <i type="int" name="IBRION">    -1</i>
  <i name="EDIFF">      0.00000010</i>
  <i name="EDIFFG">     -0.00100000</i>
  <i type="int" name="NSW">     0</i>
  <i type="int" name="ISYM">    -1</i>
  <i name="ENCUT">    600.00000000</i>
  <i type="int" name="NBANDS">    60</i>
  <i type="logical" name="LREAL"> F  </i>
  <i type="logical" name="LPLANE"> T  </i>
  <i type="int" name="ISMEAR">     0</i>
  <i name="SIGMA">      0.01000000</i>
  <i type="int" name="LMAXMIX">     4</i>
  <i type="logical" name="LWAVE"> F  </i>
  <i type="logical" name="LCHARG"> F  </i>
  <i type="logical" name="GGA_COMPAT"> F  </i>
  <v type="int" name="KPOINT_BSE">    -1     0     0     0</v>
 </incar>
 <structure name="primitive_cell" >
  <crystal>
   <varray name="basis" >
    <v>       0.00000000       3.28431199       3.28431199 </v>
    <v>       3.28431199       0.00000000       3.28431199 </v>
    <v>       3.28431199       3.28431199       0.00000000 </v>
   </varray>
   <i name="volume">     70.85381075 </i>
   <varray name="rec_basis" >
    <v>      -0.15223889       0.15223889       0.15223889 </v>
    <v>       0.15223889      -0.15223889       0.15223889 </v>
    <v>       0.15223889       0.15223889      -0.15223889 </v>
   </varray>
  </crystal>
  <varray name="positions" >
   <v>       0.00000000       0.00000000       0.00000000 </v>
   <v>      -0.50000000      -0.50000000      -0.50000000 </v>
  </varray>
 </structure>
 <varray name="primitive_index" >
  <v type="int" >        1 </v>
  <v type="int" >        2 </v>
 </varray>
 <kpoints>
  <varray name="kpointlist" >
   <v>       0.50000000       0.50000000       0.50000000 </v>
   <v>       0.50000000       0.48024426       0.48024426 </v>
   <v>       0.50000000       0.49012213       0.49012213 </v>
   <v>       0.50000000       0.50987787       0.50987787 </v>
   <v>       0.50000000       0.51975574       0.51975574 </v>
   <v>       0.48024426       0.50000000       0.48024426 </v>
   <v>       0.49012213       0.50000000       0.49012213 </v>
   <v>       0.50987787       0.50000000       0.50987787 </v>
   <v>       0.51975574       0.50000000       0.51975574 </v>
   <v>       0.48024426       0.48024426       0.50000000 </v>
   <v>       0.49012213       0.49012213       0.50000000 </v>
   <v>       0.50987787       0.50987787       0.50000000 </v>
   <v>       0.51975574       0.51975574       0.50000000 </v>
   <v>       0.48024426       0.48024426       0.46048851 </v>
   <v>       0.48024426       0.49012213       0.47036638 </v>
   <v>       0.48024426       0.50987787       0.49012213 </v>
   <v>       0.48024426       0.51975574       0.50000000 </v>
   <v>       0.49012213       0.48024426       0.47036638 </v>
   <v>       0.49012213       0.49012213       0.48024426 </v>
   <v>       0.49012213       0.50987787       0.50000000 </v>
   <v>       0.49012213       0.51975574       0.50987787 </v>
   <v>       0.50987787       0.48024426       0.49012213 </v>
   <v>       0.50987787       0.49012213       0.50000000 </v>
   <v>       0.50987787       0.50987787       0.51975574 </v>
   <v>       0.50987787       0.51975574       0.52963362 </v>
   <v>       0.51975574       0.48024426       0.50000000 </v>
   <v>       0.51975574       0.49012213       0.50987787 </v>
   <v>       0.51975574       0.50987787       0.52963362 </v>
   <v>       0.51975574       0.51975574       0.53951149 </v>
   <v>       0.48024426       0.46048851       0.48024426 </v>
   <v>       0.48024426       0.47036638       0.49012213 </v>
   <v>       0.48024426       0.49012213       0.50987787 </v>
   <v>       0.48024426       0.50000000       0.51975574 </v>
   <v>       0.49012213       0.47036638       0.48024426 </v>
   <v>       0.49012213       0.48024426       0.49012213 </v>
   <v>       0.49012213       0.50000000       0.50987787 </v>
   <v>       0.49012213       0.50987787       0.51975574 </v>
   <v>       0.50987787       0.49012213       0.48024426 </v>
   <v>       0.50987787       0.50000000       0.49012213 </v>
   <v>       0.50987787       0.51975574       0.50987787 </v>
   <v>       0.50987787       0.52963362       0.51975574 </v>
   <v>       0.51975574       0.50000000       0.48024426 </v>
   <v>       0.51975574       0.50987787       0.49012213 </v>
   <v>       0.51975574       0.52963362       0.50987787 </v>
   <v>       0.51975574       0.53951149       0.51975574 </v>
   <v>       0.46048851       0.48024426       0.48024426 </v>
   <v>       0.47036638       0.48024426       0.49012213 </v>
   <v>       0.49012213       0.48024426       0.50987787 </v>
   <v>       0.50000000       0.48024426       0.51975574 </v>
   <v>       0.47036638       0.49012213       0.48024426 </v>
   <v>       0.48024426       0.49012213       0.49012213 </v>
   <v>       0.50000000       0.49012213       0.50987787 </v>
   <v>       0.50987787       0.49012213       0.51975574 </v>
   <v>       0.49012213       0.50987787       0.48024426 </v>
   <v>       0.50000000       0.50987787       0.49012213 </v>
   <v>       0.51975574       0.50987787       0.50987787 </v>
   <v>       0.52963362       0.50987787       0.51975574 </v>
   <v>       0.50000000       0.51975574       0.48024426 </v>
   <v>       0.50987787       0.51975574       0.49012213 </v>
   <v>       0.52963362       0.51975574       0.50987787 </v>
   <v>       0.53951149       0.51975574       0.51975574 </v>
  </varray>
  <varray name="weights" >
   <v>       0.01639344 </v>
   <v>       0.01639344 </v>
   <v>       0.01639344 </v>
   <v>       0.01639344 </v>
   <v>       0.01639344 </v>
   <v>       0.01639344 </v>
   <v>       0.01639344 </v>
   <v>       0.01639344 </v>
   <v>       0.01639344 </v>
   <v>       0.01639344 </v>
   <v>       0.01639344 </v>
   <v>       0.01639344 </v>
   <v>       0.01639344 </v>
   <v>       0.01639344 </v>
   <v>       0.01639344 </v>
   <v>       0.01639344 </v>
   <v>       0.01639344 </v>
   <v>       0.01639344 </v>
   <v>       0.01639344 </v>
   <v>       0.01639344 </v>
   <v>       0.01639344 </v>
   <v>       0.01639344 </v>
   <v>       0.01639344 </v>
   <v>       0.01639344 </v>
   <v>       0.01639344 </v>
   <v>       0.01639344 </v>
   <v>       0.01639344 </v>
   <v>       0.01639344 </v>
   <v>       0.01639344 </v>
   <v>       0.01639344 </v>
   <v>       0.01639344 </v>
   <v>       0.01639344 </v>
   <v>       0.01639344 </v>
   <v>       0.01639344 </v>
   <v>       0.01639344 </v>
   <v>       0.01639344 </v>
   <v>       0.01639344 </v>
   <v>       0.01639344 </v>
   <v>       0.01639344 </v>
   <v>       0.01639344 </v>
   <v>       0.01639344 </v>
   <v>       0.01639344 </v>
   <v>       0.01639344 </v>
   <v>       0.01639344 </v>
   <v>       0.01639344 </v>
   <v>       0.01639344 </v>
   <v>       0.01639344 </v>
   <v>       0.01639344 </v>
   <v>       0.01639344 </v>
   <v>       0.01639344 </v>
   <v>       0.01639344 </v>
   <v>       0.01639344 </v>
   <v>       0.01639344 </v>
   <v>       0.01639344 </v>
   <v>       0.01639344 </v>
   <v>       0.01639344 </v>
   <v>       0.01639344 </v>
   <v>       0.01639344 </v>
   <v>       0.01639344 </v>
   <v>       0.01639344 </v>
   <v>       0.01639344 </v>
  </varray>
 </kpoints>
 <parameters>
  <separator name="general" >
   <i type="string" name="SYSTEM">PbTe</i>
   <i type="logical" name="LCOMPAT"> F  </i>
  </separator>
  <separator name="electronic" >
   <i type="string" name="PREC">accura</i>
   <i name="ENMAX">    600.00000000</i>
   <i name="ENAUG">    391.91400000</i>
   <i name="EDIFF">      0.00000010</i>
   <i type="int" name="IALGO">    58</i>
   <i type="int" name="IWAVPR">    10</i>
   <i type="int" name="NBANDS">    60</i>
   <i name="NELECT">     20.00000000</i>
   <i type="int" name="TURBO">     0</i>
   <i type="int" name="IRESTART">     0</i>
   <i type="int" name="NREBOOT">     0</i>
   <i type="int" name="NMIN">     0</i>
   <i name="EREF">      0.00000000</i>
   <separator name="electronic smearing" >
    <i type="int" name="ISMEAR">     0</i>
    <i name="SIGMA">      0.01000000</i>
    <i name="KSPACING">      0.50000000</i>
    <i type="logical" name="KGAMMA"> T  </i>
   </separator>
   <separator name="electronic projectors" >
    <i type="logical" name="LREAL"> F  </i>
    <v name="ROPT">      0.00000000      0.00000000</v>
    <i type="int" name="LMAXPAW">  -100</i>
    <i type="int" name="LMAXMIX">     4</i>
    <i type="logical" name="NLSPLINE"> F  </i>
   </separator>
   <separator name="electronic startup" >
    <i type="int" name="ISTART">     0</i>
    <i type="int" name="ICHARG">    11</i>
    <i type="int" name="INIWAV">     1</i>
   </separator>
   <separator name="electronic spin" >
    <i type="int" name="ISPIN">     1</i>
    <i type="logical" name="LNONCOLLINEAR"> T  </i>
    <v name="MAGMOM">      1.00000000      1.00000000      1.00000000      1.00000000      1.00000000      1.00000000</v>
    <i name="NUPDOWN">     -1.00000000</i>
    <i type="logical" name="LSORBIT"> T  </i>
    <v name="SAXIS">      0.00000000      0.00000000      1.00000000</v>
    <i type="logical" name="LSPIRAL"> F  </i>
    <v name="QSPIRAL">      0.00000000      0.00000000      0.00000000</v>
    <i type="logical" name="LZEROZ"> F  </i>
   </separator>
   <separator name="electronic exchange-correlation" >
    <i type="logical" name="LASPH"> F  </i>
    <i type="logical" name="LMETAGGA"> F  </i>
   </separator>
   <separator name="electronic convergence" >
    <i type="int" name="NELM">    60</i>
    <i type="int" name="NELMDL">     0</i>
    <i type="int" name="NELMIN">     2</i>
    <i name="ENINI">    600.00000000</i>
    <separator name="electronic convergence detail" >
     <i type="logical" name="LDIAG"> T  </i>
     <i type="logical" name="LSUBROT"> F  </i>
     <i name="WEIMIN">      0.00000000</i>
     <i name="EBREAK">      0.00000000</i>
     <i name="DEPER">      0.30000000</i>
     <i type="int" name="NRMM">     4</i>
     <i name="TIME">      0.40000000</i>
    </separator>
   </separator>
   <separator name="electronic mixer" >
    <i name="AMIX">      0.40000000</i>
    <i name="BMIX">      1.00000000</i>
    <i name="AMIN">      0.10000000</i>
    <i name="AMIX_MAG">      1.60000000</i>
    <i name="BMIX_MAG">      1.00000000</i>
    <separator name="electronic mixer details" >
     <i type="int" name="IMIX">     4</i>
     <i type="logical" name="MIXFIRST"> F  </i>
     <i type="int" name="MAXMIX">   -45</i>
     <i name="WC">    100.00000000</i>
     <i type="int" name="INIMIX">     1</i>
     <i type="int" name="MIXPRE">     1</i>
     <i type="int" name="MREMOVE">     5</i>
    </separator>
   </separator>
   <separator name="electronic dipolcorrection" >
    <i type="logical" name="LDIPOL"> F  </i>
    <i type="logical" name="LMONO"> F  </i>
    <i type="int" name="IDIPOL">     0</i>
    <i name="EPSILON">      1.00000000</i>
    <v name="DIPOL">   -100.00000000   -100.00000000   -100.00000000</v>
    <i name="EFIELD">      0.00000000</i>
   </separator>
  </separator>
  <separator name="grids" >
   <i type="int" name="NGX">    40</i>
   <i type="int" name="NGY">    40</i>
   <i type="int" name="NGZ">    40</i>
   <i type="int" name="NGXF">    80</i>
   <i type="int" name="NGYF">    80</i>
   <i type="int" name="NGZF">    80</i>
   <i type="logical" name="ADDGRID"> T  </i>
  </separator>
  <separator name="ionic" >
   <i type="int" name="NSW">     0</i>
   <i type="int" name="IBRION">    -1</i>
   <i type="int" name="MDALGO">     0</i>
   <i type="int" name="ISIF">     2</i>
   <i name="PSTRESS">      0.00000000</i>
   <i name="EDIFFG">     -0.00100000</i>
   <i type="int" name="NFREE">     0</i>
   <i name="POTIM">      0.50000000</i>
   <i name="SMASS">     -3.00000000</i>
   <i name="SCALEE">      1.00000000</i>
  </separator>
  <separator name="ionic md" >
   <i name="TEBEG">      0.00010000</i>
   <i name="TEEND">      0.00010000</i>
   <i type="int" name="NBLOCK">     1</i>
   <i type="int" name="KBLOCK">     1</i>
   <i type="int" name="NPACO">   256</i>
   <i name="APACO">     16.00000000</i>
  </separator>
  <separator name="symmetry" >
   <i type="int" name="ISYM">    -1</i>
   <i name="SYMPREC">      0.00001000</i>
  </separator>
  <separator name="dos" >
   <i type="int" name="LORBIT">     0</i>
   <v name="RWIGS">     -1.00000000     -1.00000000</v>
   <i type="int" name="NEDOS">   301</i>
   <i name="EMIN">     10.00000000</i>
   <i name="EMAX">    -10.00000000</i>
   <i name="EFERMI">      0.00000000</i>
  </separator>
  <separator name="writing" >
   <i type="int" name="NWRITE">     2</i>
   <i type="logical" name="LWAVE"> F  </i>
   <i type="logical" name="LDOWNSAMPLE"> F  </i>
   <i type="logical" name="LCHARG"> F  </i>
   <i type="logical" name="LPARD"> F  </i>
   <i type="logical" name="LVTOT"> F  </i>
   <i type="logical" name="LVHAR"> F  </i>
   <i type="logical" name="LELF"> F  </i>
   <i type="logical" name="LOPTICS"> F  </i>
   <v name="STM">      0.00000000      0.00000000      0.00000000      0.00000000      0.00000000      0.00000000      0.00000000</v>
  </separator>
  <separator name="performance" >
   <i type="int" name="NPAR">     4</i>
   <i type="int" name="NSIM">     4</i>
   <i type="int" name="NBLK">    -1</i>
   <i type="logical" name="LPLANE"> T  </i>
   <i type="logical" name="LSCALAPACK"> T  </i>
   <i type="logical" name="LSCAAWARE"> F  </i>
   <i type="logical" name="LSCALU"> F  </i>
   <i type="logical" name="LASYNC"> F  </i>
   <i type="logical" name="LORBITALREAL"> F  </i>
  </separator>
  <separator name="miscellaneous" >
   <i type="int" name="IDIOT">     3</i>
   <i type="int" name="ISPECIAL">     0</i>
   <i type="logical" name="LMUSIC"> F  </i>
   <v name="POMASS">    127.60000000    207.20000000</v>
   <v name="DARWINR">      0.00000000      0.00000000</v>
   <v name="DARWINV">      1.00000000      1.00000000</v>
   <i type="logical" name="LCORR"> T  </i>
  </separator>
  <i type="logical" name="GGA_COMPAT"> F  </i>
  <i type="logical" name="LBERRY"> F  </i>
  <i type="int" name="ICORELEVEL">     0</i>
  <i type="logical" name="LDAU"> F  </i>
  <i type="int" name="I_CONSTRAINED_M">     0</i>
  <separator name="electronic exchange-correlation" >
   <i type="string" name="GGA">--</i>
   <i type="int" name="VOSKOWN">     0</i>
   <i type="logical" name="LHFCALC"> F  </i>
   <i type="string" name="PRECFOCK"></i>
   <i type="logical" name="LSYMGRAD"> F  </i>
   <i type="logical" name="LHFONE"> F  </i>
   <i type="logical" name="LRHFCALC"> F  </i>
   <i type="logical" name="LTHOMAS"> F  </i>
   <i type="logical" name="LMODELHF"> F  </i>
   <i name="ENCUT4O">     -1.00000000</i>
   <i type="int" name="EXXOEP">     0</i>
   <i type="int" name="FOURORBIT">     0</i>
   <i name="AEXX">      0.00000000</i>
   <i name="HFALPHA">      0.00000000</i>
   <i name="MCALPHA">      0.00000000</i>
   <i name="ALDAX">      1.00000000</i>
   <i name="AGGAX">      1.00000000</i>
   <i name="ALDAC">      1.00000000</i>
   <i name="AGGAC">      1.00000000</i>
   <i type="int" name="NKREDX">     1</i>
   <i type="int" name="NKREDY">     1</i>
   <i type="int" name="NKREDZ">     1</i>
   <i type="logical" name="SHIFTRED"> F  </i>
   <i type="logical" name="ODDONLY"> F  </i>
   <i type="logical" name="EVENONLY"> F  </i>
   <i type="int" name="LMAXFOCK">     0</i>
   <i type="int" name="NMAXFOCKAE">     0</i>
   <i type="logical" name="LFOCKAEDFT"> F  </i>
   <i name="HFSCREEN">      0.00000000</i>
   <i name="HFSCREENC">      0.00000000</i>
   <i type="int" name="NBANDSGWLOW">     0</i>
  </separator>
  <separator name="vdW DFT" >
   <i type="logical" name="LUSE_VDW"> F  </i>
   <i name="Zab_VDW">     -0.84910000</i>
   <i name="PARAM1">      0.12340000</i>
   <i name="PARAM2">      1.00000000</i>
   <i name="PARAM3">      0.00000000</i>
  </separator>
  <separator name="model GW" >
   <i type="int" name="MODEL_GW">     0</i>
   <i name="MODEL_EPS0">     21.25614323</i>
   <i name="MODEL_ALPHA">      1.00000000</i>
  </separator>
  <separator name="linear response parameters" >
   <i type="logical" name="LEPSILON"> F  </i>
   <i type="logical" name="LRPA"> F  </i>
   <i type="logical" name="LNABLA"> F  </i>
   <i type="logical" name="LVEL"> F  </i>
   <i type="int" name="KINTER">     0</i>
   <i name="CSHIFT">      0.10000000</i>
   <i name="OMEGAMAX">     -1.00000000</i>
   <i name="DEG_THRESHOLD">      0.00200000</i>
   <i name="RTIME">     -0.10000000</i>
   <i name="WPLASMAI">      0.00000000</i>
   <v name="DFIELD">      0.00000000      0.00000000      0.00000000</v>
   <v name="WPLASMA">      0.00000000      0.00000000      0.00000000      0.00000000      0.00000000      0.00000000      0.00000000      0.00000000      0.00000000</v>
  </separator>
  <separator name="orbital magnetization" >
   <i type="logical" name="NUCIND"> F  </i>
   <v name="MAGPOS">      0.00000000      0.00000000      0.00000000</v>
   <i type="logical" name="LNICSALL"> T  </i>
   <i type="logical" name="ORBITALMAG"> F  </i>
   <i type="logical" name="LMAGBLOCH"> F  </i>
   <i type="logical" name="LCHIMAG"> F  </i>
   <i type="logical" name="LGAUGE"> T  </i>
   <i type="int" name="MAGATOM">     0</i>
   <v name="MAGDIPOL">      0.00000000      0.00000000      0.00000000</v>
   <v name="AVECCONST">      0.00000000      0.00000000      0.00000000</v>
  </separator>
  <separator name="response functions" >
   <i type="logical" name="LADDER"> F  </i>
   <i type="logical" name="LRPAFORCE"> F  </i>
   <i type="logical" name="LFXC"> F  </i>
   <i type="logical" name="LHARTREE"> T  </i>
   <i type="int" name="IBSE">     0</i>
   <v type="int" name="KPOINT">    -1     0     0     0</v>
   <i type="logical" name="LTCTE"> F  </i>
   <i type="logical" name="LTETE"> F  </i>
   <i type="logical" name="LTRIPLET"> F  </i>
   <i type="logical" name="LFXCEPS"> F  </i>
   <i type="logical" name="LFXHEG"> F  </i>
   <i type="int" name="NATURALO">     2</i>
   <i type="logical" name="L2ORDER"> F  </i>
   <i type="logical" name="LMP2LT"> F  </i>
   <i type="logical" name="LUSEW"> F  </i>
   <i name="ENCUTGW">     -2.00000000</i>
   <i name="ENCUTGWSOFT">     -2.00000000</i>
   <i name="ENCUTLF">     -1.00000000</i>
   <i type="int" name="LMAXMP2">    -1</i>
   <i name="SCISSOR">      0.00000000</i>
   <i type="int" name="NOMEGA">     0</i>
   <i type="int" name="NOMEGAR">     0</i>
   <i type="int" name="NBANDSGW">    -1</i>
   <i type="int" name="NBANDSO">    -1</i>
   <i type="int" name="NBANDSV">    -1</i>
   <i type="int" name="NELM">     1</i>
   <i type="int" name="NELMHF">     1</i>
   <i type="int" name="DIM">     3</i>
   <i type="int" name="ANTIRES">     0</i>
   <i name="OMEGAMAX">    -30.00000000</i>
   <i name="OMEGAMIN">    -30.00000000</i>
   <i name="OMEGATL">   -200.00000000</i>
   <i type="int" name="OMEGAGRID">   140</i>
   <i name="CSHIFT">     -0.10000000</i>
   <i type="logical" name="SELFENERGY"> F  </i>
   <i type="logical" name="LSPECTRAL"> F  </i>
   <i type="logical" name="LSPECTRALGW"> F  </i>
   <i type="logical" name="LSINGLES"> F  </i>
   <i type="logical" name="LFERMIGW"> F  </i>
   <i type="logical" name="ODDONLYGW"> F  </i>
   <i type="logical" name="EVENONLYGW"> F  </i>
   <i type="int" name="NKREDLFX">     1</i>
   <i type="int" name="NKREDLFY">     1</i>
   <i type="int" name="NKREDLFZ">     1</i>
   <i type="int" name="MAXMEM">  2800</i>
   <i type="int" name="TELESCOPE">     0</i>
   <i type="int" name="TAUPAR">     1</i>
   <i type="int" name="OMEGAPAR">    -1</i>
   <i name="LAMBDA">      1.00000000</i>
  </separator>
  <separator name="External order field" >
   <i name="OFIELD_KAPPA">      0.00000000</i>
   <v name="OFIELD_K">      0.00000000      0.00000000      0.00000000</v>
   <i name="OFIELD_Q6_NEAR">      0.00000000</i>
   <i name="OFIELD_Q6_FAR">      0.00000000</i>
   <i name="OFIELD_A">      0.00000000</i>
  </separator>
 </parameters>
 <atominfo>
  <atoms>       2 </atoms>
  <types>       2 </types>
  <array name="atoms" >
   <dimension dim="1">ion</dimension>
   <field type="string">element</field>
   <field type="int">atomtype</field>
   <set>
    <rc><c>Te</c><c>   1</c></rc>
    <rc><c>Pb</c><c>   2</c></rc>
   </set>
  </array>
  <array name="atomtypes" >
   <dimension dim="1">type</dimension>
   <field type="int">atomspertype</field>
   <field type="string">element</field>
   <field>mass</field>
   <field>valence</field>
   <field type="string">pseudopotential</field>
   <set>
    <rc><c>   1</c><c>Te</c><c>    127.60000000</c><c>      6.00000000</c><c>  PAW_PBE Te 08Apr2002                  </c></rc>
    <rc><c>   1</c><c>Pb</c><c>    207.20000000</c><c>     14.00000000</c><c>  PAW_PBE Pb_d 06Sep2000                </c></rc>
   </set>
  </array>
 </atominfo>
 <structure name="initialpos" >
  <crystal>
   <varray name="basis" >
    <v>       0.00000000       3.28431199       3.28431199 </v>
    <v>       3.28431199       0.00000000       3.28431199 </v>
    <v>       3.28431199       3.28431199       0.00000000 </v>
   </varray>
   <i name="volume">     70.85381075 </i>
   <varray name="rec_basis" >
    <v>      -0.15223889       0.15223889       0.15223889 </v>
    <v>       0.15223889      -0.15223889       0.15223889 </v>
    <v>       0.15223889       0.15223889      -0.15223889 </v>
   </varray>
  </crystal>
  <varray name="positions" >
   <v>       0.00000000       0.00000000       0.00000000 </v>
   <v>       0.50000000       0.50000000       0.50000000 </v>
  </varray>
 </structure>
 <calculation>
  <scstep>
   <time name="total">   12.44   12.55</time>
   <energy>
    <i name="alphaZ">     34.30176334 </i>
    <i name="ewald">  -1366.58178547 </i>
    <i name="hartreedc">   -513.40574798 </i>
    <i name="XCdc">      9.71753223 </i>
    <i name="pawpsdc">   1878.37875726 </i>
    <i name="pawaedc">  -1823.09045373 </i>
    <i name="eentropy">     -0.00009239 </i>
    <i name="bandstr">    112.52669445 </i>
    <i name="atom">   1884.88874340 </i>
    <i name="e_fr_energy">    216.73541111 </i>
    <i name="e_wo_entrp">    216.73550349 </i>
    <i name="e_0_energy">    216.73545730 </i>
   </energy>
  </scstep>
  <scstep>
   <time name="total">   11.59   11.74</time>
   <energy>
    <i name="e_fr_energy">     27.07448497 </i>
    <i name="e_wo_entrp">     27.07460338 </i>
    <i name="e_0_energy">     27.07454418 </i>
   </energy>
  </scstep>
  <scstep>
   <time name="total">   12.44   12.52</time>
   <energy>
    <i name="e_fr_energy">     -0.32660765 </i>
    <i name="e_wo_entrp">     -0.32660730 </i>
    <i name="e_0_energy">     -0.32660747 </i>
   </energy>
  </scstep>
  <scstep>
   <time name="total">   13.66   13.76</time>
   <energy>
    <i name="e_fr_energy">     -1.77752179 </i>
    <i name="e_wo_entrp">     -1.77752179 </i>
    <i name="e_0_energy">     -1.77752179 </i>
   </energy>
  </scstep>
  <scstep>
   <time name="total">   15.17   15.41</time>
   <energy>
    <i name="e_fr_energy">     -1.83705436 </i>
    <i name="e_wo_entrp">     -1.83705436 </i>
    <i name="e_0_energy">     -1.83705436 </i>
   </energy>
  </scstep>
  <scstep>
   <time name="total">    9.04    9.08</time>
   <energy>
    <i name="e_fr_energy">     -1.83705436 </i>
    <i name="e_wo_entrp">     -1.83705436 </i>
    <i name="e_0_energy">     -1.83705436 </i>
   </energy>
  </scstep>
  <scstep>
   <time name="total">    9.10    9.18</time>
   <energy>
    <i name="e_fr_energy">     -1.83747970 </i>
    <i name="e_wo_entrp">     -1.83747970 </i>
    <i name="e_0_energy">     -1.83747970 </i>
   </energy>
  </scstep>
  <scstep>
   <time name="total">    9.02    9.07</time>
   <energy>
    <i name="e_fr_energy">     -1.83761774 </i>
    <i name="e_wo_entrp">     -1.83761774 </i>
    <i name="e_0_energy">     -1.83761774 </i>
   </energy>
  </scstep>
  <scstep>
   <time name="total">    9.08    9.11</time>
   <energy>
    <i name="e_fr_energy">     -1.83765866 </i>
    <i name="e_wo_entrp">     -1.83765866 </i>
    <i name="e_0_energy">     -1.83765866 </i>
   </energy>
  </scstep>
  <scstep>
   <time name="total">    9.04    9.10</time>
   <energy>
    <i name="e_fr_energy">     -1.83766918 </i>
    <i name="e_wo_entrp">     -1.83766918 </i>
    <i name="e_0_energy">     -1.83766918 </i>
   </energy>
  </scstep>
  <scstep>
   <time name="total">    9.05    9.08</time>
   <energy>
    <i name="e_fr_energy">     -1.83767171 </i>
    <i name="e_wo_entrp">     -1.83767171 </i>
    <i name="e_0_energy">     -1.83767171 </i>
   </energy>
  </scstep>
  <scstep>
   <time name="total">    9.02    9.04</time>
   <energy>
    <i name="e_fr_energy">     -1.83767220 </i>
    <i name="e_wo_entrp">     -1.83767220 </i>
    <i name="e_0_energy">     -1.83767220 </i>
   </energy>
  </scstep>
  <scstep>
   <time name="total">    9.03    9.05</time>
   <energy>
    <i name="e_fr_energy">     -1.83767236 </i>
    <i name="e_wo_entrp">     -1.83767236 </i>
    <i name="e_0_energy">     -1.83767236 </i>
   </energy>
  </scstep>
  <scstep>
   <time name="total">   11.47   11.56</time>
   <energy>
    <i name="alphaZ">     34.30176334 </i>
    <i name="ewald">  -1366.58178547 </i>
    <i name="hartreedc">   -513.40574798 </i>
    <i name="XCdc">      9.71753223 </i>
    <i name="pawpsdc">   1878.37875726 </i>
    <i name="pawaedc">  -1823.09045373 </i>
    <i name="eentropy">     -0.00000000 </i>
    <i name="bandstr">   -106.04648142 </i>
    <i name="atom">   1884.88874340 </i>
    <i name="e_fr_energy">     -1.83767238 </i>
    <i name="e_wo_entrp">     -1.83767238 </i>
    <i name="e_0_energy">     -1.83767238 </i>
   </energy>
  </scstep>
  <structure>
   <crystal>
    <varray name="basis" >
     <v>       0.00000000       3.28431199       3.28431199 </v>
     <v>       3.28431199       0.00000000       3.28431199 </v>
     <v>       3.28431199       3.28431199       0.00000000 </v>
    </varray>
    <i name="volume">     70.85381075 </i>
    <varray name="rec_basis" >
     <v>      -0.15223889       0.15223889       0.15223889 </v>
     <v>       0.15223889      -0.15223889       0.15223889 </v>
     <v>       0.15223889       0.15223889      -0.15223889 </v>
    </varray>
   </crystal>
   <varray name="positions" >
    <v>       0.00000000       0.00000000       0.00000000 </v>
    <v>       0.50000000       0.50000000       0.50000000 </v>
   </varray>
  </structure>
  <varray name="forces" >
   <v>      -0.00000180       0.00000194      -0.00000324 </v>
   <v>       0.00000180      -0.00000194       0.00000324 </v>
  </varray>
  <varray name="stress" >
   <v>     159.58209194    -129.57638527    -129.57637119 </v>
   <v>    -129.57638325     159.58208654    -129.57638158 </v>
   <v>    -129.57636988    -129.57638377     159.58220354 </v>
  </varray>
  <energy>
   <i name="e_fr_energy">     -1.83767238 </i>
   <i name="e_wo_entrp">     -1.83767238 </i>
   <i name="e_0_energy">     -0.00000000 </i>
  </energy>
  <time name="totalsc">  165.80  166.96</time>
  <eigenvalues>
   <array>
    <dimension dim="1">band</dimension>
    <dimension dim="2">kpoint</dimension>
    <dimension dim="3">spin</dimension>
    <field>eigene</field>
    <field>occ</field>
    <set>
     <set comment="spin 1">
      <set comment="kpoint 1">
       <r>  -13.0687    1.0000 </r>
       <r>  -13.0687    1.0000 </r>
       <r>  -13.0625    1.0000 </r>
       <r>  -13.0625    1.0000 </r>
       <r>  -10.5240    1.0000 </r>
       <r>  -10.5240    1.0000 </r>
       <r>  -10.5050    1.0000 </r>
       <r>  -10.5050    1.0000 </r>
       <r>  -10.4943    1.0000 </r>
       <r>  -10.4943    1.0000 </r>
       <r>   -5.3563    1.0000 </r>
       <r>   -5.3563    1.0000 </r>
       <r>   -3.2788    1.0000 </r>
       <r>   -3.2788    1.0000 </r>
       <r>    3.8775    1.0000 </r>
       <r>    3.8775    1.0000 </r>
       <r>    4.4725    1.0000 </r>
       <r>    4.4725    1.0000 </r>
       <r>    5.0719    1.0000 </r>
       <r>    5.0719    1.0000 </r>
       <r>    5.2035    0.0000 </r>
       <r>    5.2035    0.0000 </r>
       <r>    6.3913    0.0000 </r>
       <r>    6.3913    0.0000 </r>
       <r>    6.8705    0.0000 </r>
       <r>    6.8706    0.0000 </r>
       <r>   13.3292    0.0000 </r>
       <r>   13.3292    0.0000 </r>
       <r>   13.8988    0.0000 </r>
       <r>   13.8988    0.0000 </r>
       <r>   14.3201    0.0000 </r>
       <r>   14.3201    0.0000 </r>
       <r>   14.4088    0.0000 </r>
       <r>   14.4088    0.0000 </r>
       <r>   15.4826    0.0000 </r>
       <r>   15.4827    0.0000 </r>
       <r>   15.4977    0.0000 </r>
       <r>   15.4977    0.0000 </r>
       <r>   19.0467    0.0000 </r>
       <r>   19.0467    0.0000 </r>
       <r>   19.5678    0.0000 </r>
       <r>   19.5678    0.0000 </r>
       <r>   20.8696    0.0000 </r>
       <r>   20.8696    0.0000 </r>
       <r>   21.1338    0.0000 </r>
       <r>   21.1338    0.0000 </r>
       <r>   21.1467    0.0000 </r>
       <r>   21.1467    0.0000 </r>
       <r>   21.3059    0.0000 </r>
       <r>   21.3059    0.0000 </r>
       <r>   21.8465    0.0000 </r>
       <r>   21.8465    0.0000 </r>
       <r>   23.4271    0.0000 </r>
       <r>   23.4275    0.0000 </r>
       <r>   25.7331    0.0000 </r>
       <r>   25.7496    0.0000 </r>
       <r>   25.8522    0.0000 </r>
       <r>   25.8980    0.0000 </r>
       <r>   25.9560    0.0000 </r>
       <r>   26.0716    0.0000 </r>
      </set>
      <set comment="kpoint 2">
       <r>  -13.0687    1.0000 </r>
       <r>  -13.0687    1.0000 </r>
       <r>  -13.0625    1.0000 </r>
       <r>  -13.0625    1.0000 </r>
       <r>  -10.5240    1.0000 </r>
       <r>  -10.5240    1.0000 </r>
       <r>  -10.5051    1.0000 </r>
       <r>  -10.5051    1.0000 </r>
       <r>  -10.4943    1.0000 </r>
       <r>  -10.4943    1.0000 </r>
       <r>   -5.3590    1.0000 </r>
       <r>   -5.3589    1.0000 </r>
       <r>   -3.2705    1.0000 </r>
       <r>   -3.2705    1.0000 </r>
       <r>    3.8562    1.0000 </r>
       <r>    3.8562    1.0000 </r>
       <r>    4.4284    1.0000 </r>
       <r>    4.4284    1.0000 </r>
       <r>    4.9836    1.0000 </r>
       <r>    4.9836    1.0000 </r>
       <r>    5.3132    0.0000 </r>
       <r>    5.3132    0.0000 </r>
       <r>    6.4238    0.0000 </r>
       <r>    6.4238    0.0000 </r>
       <r>    6.9034    0.0000 </r>
       <r>    6.9034    0.0000 </r>
       <r>   13.2479    0.0000 </r>
       <r>   13.2480    0.0000 </r>
       <r>   13.9117    0.0000 </r>
       <r>   13.9118    0.0000 </r>
       <r>   14.2788    0.0000 </r>
       <r>   14.2788    0.0000 </r>
       <r>   14.4141    0.0000 </r>
       <r>   14.4141    0.0000 </r>
       <r>   15.5269    0.0000 </r>
       <r>   15.5269    0.0000 </r>
       <r>   15.5860    0.0000 </r>
       <r>   15.5860    0.0000 </r>
       <r>   18.9952    0.0000 </r>
       <r>   18.9953    0.0000 </r>
       <r>   19.5100    0.0000 </r>
       <r>   19.5100    0.0000 </r>
       <r>   20.6966    0.0000 </r>
       <r>   20.6967    0.0000 </r>
       <r>   21.0916    0.0000 </r>
       <r>   21.0916    0.0000 </r>
       <r>   21.2838    0.0000 </r>
       <r>   21.2838    0.0000 </r>
       <r>   21.4230    0.0000 </r>
       <r>   21.4230    0.0000 </r>
       <r>   21.8751    0.0000 </r>
       <r>   21.8751    0.0000 </r>
       <r>   23.5029    0.0000 </r>
       <r>   23.5032    0.0000 </r>
       <r>   25.4210    0.0000 </r>
       <r>   25.4501    0.0000 </r>
       <r>   25.8087    0.0000 </r>
       <r>   25.8609    0.0000 </r>
       <r>   26.0371    0.0000 </r>
       <r>   26.1203    0.0000 </r>
      </set>
      <set comment="kpoint 3">
       <r>  -13.0687    1.0000 </r>
       <r>  -13.0687    1.0000 </r>
       <r>  -13.0625    1.0000 </r>
       <r>  -13.0625    1.0000 </r>
       <r>  -10.5240    1.0000 </r>
       <r>  -10.5240    1.0000 </r>
       <r>  -10.5050    1.0000 </r>
       <r>  -10.5050    1.0000 </r>
       <r>  -10.4943    1.0000 </r>
       <r>  -10.4943    1.0000 </r>
       <r>   -5.3570    1.0000 </r>
       <r>   -5.3570    1.0000 </r>
       <r>   -3.2767    1.0000 </r>
       <r>   -3.2767    1.0000 </r>
       <r>    3.8723    1.0000 </r>
       <r>    3.8723    1.0000 </r>
       <r>    4.4611    1.0000 </r>
       <r>    4.4611    1.0000 </r>
       <r>    5.0386    1.0000 </r>
       <r>    5.0386    1.0000 </r>
       <r>    5.2423    0.0000 </r>
       <r>    5.2423    0.0000 </r>
       <r>    6.3997    0.0000 </r>
       <r>    6.3997    0.0000 </r>
       <r>    6.8786    0.0000 </r>
       <r>    6.8786    0.0000 </r>
       <r>   13.3074    0.0000 </r>
       <r>   13.3074    0.0000 </r>
       <r>   13.9040    0.0000 </r>
       <r>   13.9040    0.0000 </r>
       <r>   14.3125    0.0000 </r>
       <r>   14.3128    0.0000 </r>
       <r>   14.4057    0.0000 </r>
       <r>   14.4057    0.0000 </r>
       <r>   15.4969    0.0000 </r>
       <r>   15.4969    0.0000 </r>
       <r>   15.5181    0.0000 </r>
       <r>   15.5182    0.0000 </r>
       <r>   19.0344    0.0000 </r>
       <r>   19.0345    0.0000 </r>
       <r>   19.5520    0.0000 </r>
       <r>   19.5520    0.0000 </r>
       <r>   20.8112    0.0000 </r>
       <r>   20.8112    0.0000 </r>
       <r>   21.0960    0.0000 </r>
       <r>   21.0960    0.0000 </r>
       <r>   21.2389    0.0000 </r>
       <r>   21.2389    0.0000 </r>
       <r>   21.3219    0.0000 </r>
       <r>   21.3219    0.0000 </r>
       <r>   21.8516    0.0000 </r>
       <r>   21.8516    0.0000 </r>
       <r>   23.4460    0.0000 </r>
       <r>   23.4461    0.0000 </r>
       <r>   25.6198    0.0000 </r>
       <r>   25.6714    0.0000 </r>
       <r>   25.7946    0.0000 </r>
       <r>   25.9378    0.0000 </r>
       <r>   25.9873    0.0000 </r>
       <r>   26.1943    0.0000 </r>
      </set>
      <set comment="kpoint 4">
       <r>  -13.0687    1.0000 </r>
       <r>  -13.0687    1.0000 </r>
       <r>  -13.0625    1.0000 </r>
       <r>  -13.0625    1.0000 </r>
       <r>  -10.5240    1.0000 </r>
       <r>  -10.5240    1.0000 </r>
       <r>  -10.5050    1.0000 </r>
       <r>  -10.5050    1.0000 </r>
       <r>  -10.4943    1.0000 </r>
       <r>  -10.4943    1.0000 </r>
       <r>   -5.3570    1.0000 </r>
       <r>   -5.3570    1.0000 </r>
       <r>   -3.2767    1.0000 </r>
       <r>   -3.2767    1.0000 </r>
       <r>    3.8723    1.0000 </r>
       <r>    3.8723    1.0000 </r>
       <r>    4.4611    1.0000 </r>
       <r>    4.4611    1.0000 </r>
       <r>    5.0386    1.0000 </r>
       <r>    5.0386    1.0000 </r>
       <r>    5.2423    0.0000 </r>
       <r>    5.2423    0.0000 </r>
       <r>    6.3997    0.0000 </r>
       <r>    6.3997    0.0000 </r>
       <r>    6.8786    0.0000 </r>
       <r>    6.8786    0.0000 </r>
       <r>   13.3074    0.0000 </r>
       <r>   13.3075    0.0000 </r>
       <r>   13.9039    0.0000 </r>
       <r>   13.9040    0.0000 </r>
       <r>   14.3125    0.0000 </r>
       <r>   14.3126    0.0000 </r>
       <r>   14.4057    0.0000 </r>
       <r>   14.4057    0.0000 </r>
       <r>   15.4968    0.0000 </r>
       <r>   15.4968    0.0000 </r>
       <r>   15.5180    0.0000 </r>
       <r>   15.5180    0.0000 </r>
       <r>   19.0344    0.0000 </r>
       <r>   19.0345    0.0000 </r>
       <r>   19.5520    0.0000 </r>
       <r>   19.5520    0.0000 </r>
       <r>   20.8112    0.0000 </r>
       <r>   20.8112    0.0000 </r>
       <r>   21.0960    0.0000 </r>
       <r>   21.0960    0.0000 </r>
       <r>   21.2389    0.0000 </r>
       <r>   21.2389    0.0000 </r>
       <r>   21.3219    0.0000 </r>
       <r>   21.3219    0.0000 </r>
       <r>   21.8516    0.0000 </r>
       <r>   21.8516    0.0000 </r>
       <r>   23.4459    0.0000 </r>
       <r>   23.4463    0.0000 </r>
       <r>   25.5919    0.0000 </r>
       <r>   25.6910    0.0000 </r>
       <r>   25.7985    0.0000 </r>
       <r>   25.8426    0.0000 </r>
       <r>   25.9332    0.0000 </r>
       <r>   26.0782    0.0000 </r>
      </set>
      <set comment="kpoint 5">
       <r>  -13.0687    1.0000 </r>
       <r>  -13.0687    1.0000 </r>
       <r>  -13.0625    1.0000 </r>
       <r>  -13.0625    1.0000 </r>
       <r>  -10.5240    1.0000 </r>
       <r>  -10.5240    1.0000 </r>
       <r>  -10.5051    1.0000 </r>
       <r>  -10.5051    1.0000 </r>
       <r>  -10.4943    1.0000 </r>
       <r>  -10.4943    1.0000 </r>
       <r>   -5.3590    1.0000 </r>
       <r>   -5.3589    1.0000 </r>
       <r>   -3.2705    1.0000 </r>
       <r>   -3.2705    1.0000 </r>
       <r>    3.8562    1.0000 </r>
       <r>    3.8562    1.0000 </r>
       <r>    4.4284    1.0000 </r>
       <r>    4.4284    1.0000 </r>
       <r>    4.9836    1.0000 </r>
       <r>    4.9836    1.0000 </r>
       <r>    5.3132    0.0000 </r>
       <r>    5.3132    0.0000 </r>
       <r>    6.4238    0.0000 </r>
       <r>    6.4238    0.0000 </r>
       <r>    6.9034    0.0000 </r>
       <r>    6.9034    0.0000 </r>
       <r>   13.2479    0.0000 </r>
       <r>   13.2480    0.0000 </r>
       <r>   13.9117    0.0000 </r>
       <r>   13.9119    0.0000 </r>
       <r>   14.2787    0.0000 </r>
       <r>   14.2789    0.0000 </r>
       <r>   14.4141    0.0000 </r>
       <r>   14.4141    0.0000 </r>
       <r>   15.5269    0.0000 </r>
       <r>   15.5269    0.0000 </r>
       <r>   15.5860    0.0000 </r>
       <r>   15.5860    0.0000 </r>
       <r>   18.9952    0.0000 </r>
       <r>   18.9953    0.0000 </r>
       <r>   19.5100    0.0000 </r>
       <r>   19.5100    0.0000 </r>
       <r>   20.6967    0.0000 </r>
       <r>   20.6967    0.0000 </r>
       <r>   21.0916    0.0000 </r>
       <r>   21.0916    0.0000 </r>
       <r>   21.2838    0.0000 </r>
       <r>   21.2838    0.0000 </r>
       <r>   21.4230    0.0000 </r>
       <r>   21.4230    0.0000 </r>
       <r>   21.8751    0.0000 </r>
       <r>   21.8751    0.0000 </r>
       <r>   23.5027    0.0000 </r>
       <r>   23.5030    0.0000 </r>
       <r>   25.4200    0.0000 </r>
       <r>   25.4580    0.0000 </r>
       <r>   25.7352    0.0000 </r>
       <r>   25.8060    0.0000 </r>
       <r>   25.9350    0.0000 </r>
       <r>   26.0845    0.0000 </r>
      </set>
      <set comment="kpoint 6">
       <r>  -13.0687    1.0000 </r>
       <r>  -13.0687    1.0000 </r>
       <r>  -13.0625    1.0000 </r>
       <r>  -13.0625    1.0000 </r>
       <r>  -10.5240    1.0000 </r>
       <r>  -10.5240    1.0000 </r>
       <r>  -10.5051    1.0000 </r>
       <r>  -10.5051    1.0000 </r>
       <r>  -10.4943    1.0000 </r>
       <r>  -10.4943    1.0000 </r>
       <r>   -5.3590    1.0000 </r>
       <r>   -5.3589    1.0000 </r>
       <r>   -3.2705    1.0000 </r>
       <r>   -3.2705    1.0000 </r>
       <r>    3.8562    1.0000 </r>
       <r>    3.8562    1.0000 </r>
       <r>    4.4284    1.0000 </r>
       <r>    4.4284    1.0000 </r>
       <r>    4.9836    1.0000 </r>
       <r>    4.9836    1.0000 </r>
       <r>    5.3132    0.0000 </r>
       <r>    5.3132    0.0000 </r>
       <r>    6.4238    0.0000 </r>
       <r>    6.4238    0.0000 </r>
       <r>    6.9034    0.0000 </r>
       <r>    6.9034    0.0000 </r>
       <r>   13.2479    0.0000 </r>
       <r>   13.2479    0.0000 </r>
       <r>   13.9117    0.0000 </r>
       <r>   13.9117    0.0000 </r>
       <r>   14.2787    0.0000 </r>
       <r>   14.2788    0.0000 </r>
       <r>   14.4141    0.0000 </r>
       <r>   14.4141    0.0000 </r>
       <r>   15.5269    0.0000 </r>
       <r>   15.5269    0.0000 </r>
       <r>   15.5859    0.0000 </r>
       <r>   15.5860    0.0000 </r>
       <r>   18.9952    0.0000 </r>
       <r>   18.9953    0.0000 </r>
       <r>   19.5100    0.0000 </r>
       <r>   19.5100    0.0000 </r>
       <r>   20.6966    0.0000 </r>
       <r>   20.6967    0.0000 </r>
       <r>   21.0916    0.0000 </r>
       <r>   21.0916    0.0000 </r>
       <r>   21.2838    0.0000 </r>
       <r>   21.2838    0.0000 </r>
       <r>   21.4230    0.0000 </r>
       <r>   21.4230    0.0000 </r>
       <r>   21.8751    0.0000 </r>
       <r>   21.8751    0.0000 </r>
       <r>   23.5028    0.0000 </r>
       <r>   23.5031    0.0000 </r>
       <r>   25.4437    0.0000 </r>
       <r>   25.5972    0.0000 </r>
       <r>   25.7605    0.0000 </r>
       <r>   25.9331    0.0000 </r>
       <r>   26.2296    0.0000 </r>
       <r>   26.3362    0.0000 </r>
      </set>
      <set comment="kpoint 7">
       <r>  -13.0687    1.0000 </r>
       <r>  -13.0687    1.0000 </r>
       <r>  -13.0625    1.0000 </r>
       <r>  -13.0625    1.0000 </r>
       <r>  -10.5240    1.0000 </r>
       <r>  -10.5240    1.0000 </r>
       <r>  -10.5050    1.0000 </r>
       <r>  -10.5050    1.0000 </r>
       <r>  -10.4943    1.0000 </r>
       <r>  -10.4943    1.0000 </r>
       <r>   -5.3570    1.0000 </r>
       <r>   -5.3570    1.0000 </r>
       <r>   -3.2767    1.0000 </r>
       <r>   -3.2767    1.0000 </r>
       <r>    3.8723    1.0000 </r>
       <r>    3.8723    1.0000 </r>
       <r>    4.4611    1.0000 </r>
       <r>    4.4611    1.0000 </r>
       <r>    5.0386    1.0000 </r>
       <r>    5.0386    1.0000 </r>
       <r>    5.2423    0.0000 </r>
       <r>    5.2423    0.0000 </r>
       <r>    6.3997    0.0000 </r>
       <r>    6.3997    0.0000 </r>
       <r>    6.8786    0.0000 </r>
       <r>    6.8786    0.0000 </r>
       <r>   13.3074    0.0000 </r>
       <r>   13.3074    0.0000 </r>
       <r>   13.9039    0.0000 </r>
       <r>   13.9039    0.0000 </r>
       <r>   14.3125    0.0000 </r>
       <r>   14.3125    0.0000 </r>
       <r>   14.4057    0.0000 </r>
       <r>   14.4057    0.0000 </r>
       <r>   15.4968    0.0000 </r>
       <r>   15.4968    0.0000 </r>
       <r>   15.5180    0.0000 </r>
       <r>   15.5180    0.0000 </r>
       <r>   19.0344    0.0000 </r>
       <r>   19.0345    0.0000 </r>
       <r>   19.5520    0.0000 </r>
       <r>   19.5520    0.0000 </r>
       <r>   20.8112    0.0000 </r>
       <r>   20.8112    0.0000 </r>
       <r>   21.0960    0.0000 </r>
       <r>   21.0960    0.0000 </r>
       <r>   21.2389    0.0000 </r>
       <r>   21.2389    0.0000 </r>
       <r>   21.3219    0.0000 </r>
       <r>   21.3219    0.0000 </r>
       <r>   21.8516    0.0000 </r>
       <r>   21.8516    0.0000 </r>
       <r>   23.4462    0.0000 </r>
       <r>   23.4463    0.0000 </r>
       <r>   25.5988    0.0000 </r>
       <r>   25.6547    0.0000 </r>
       <r>   25.7899    0.0000 </r>
       <r>   25.9314    0.0000 </r>
       <r>   26.1603    0.0000 </r>
       <r>   26.3459    0.0000 </r>
      </set>
      <set comment="kpoint 8">
       <r>  -13.0687    1.0000 </r>
       <r>  -13.0687    1.0000 </r>
       <r>  -13.0625    1.0000 </r>
       <r>  -13.0625    1.0000 </r>
       <r>  -10.5240    1.0000 </r>
       <r>  -10.5240    1.0000 </r>
       <r>  -10.5050    1.0000 </r>
       <r>  -10.5050    1.0000 </r>
       <r>  -10.4943    1.0000 </r>
       <r>  -10.4943    1.0000 </r>
       <r>   -5.3570    1.0000 </r>
       <r>   -5.3570    1.0000 </r>
       <r>   -3.2767    1.0000 </r>
       <r>   -3.2767    1.0000 </r>
       <r>    3.8723    1.0000 </r>
       <r>    3.8723    1.0000 </r>
       <r>    4.4611    1.0000 </r>
       <r>    4.4611    1.0000 </r>
       <r>    5.0386    1.0000 </r>
       <r>    5.0386    1.0000 </r>
       <r>    5.2423    0.0000 </r>
       <r>    5.2423    0.0000 </r>
       <r>    6.3997    0.0000 </r>
       <r>    6.3997    0.0000 </r>
       <r>    6.8786    0.0000 </r>
       <r>    6.8786    0.0000 </r>
       <r>   13.3074    0.0000 </r>
       <r>   13.3074    0.0000 </r>
       <r>   13.9039    0.0000 </r>
       <r>   13.9039    0.0000 </r>
       <r>   14.3125    0.0000 </r>
       <r>   14.3125    0.0000 </r>
       <r>   14.4057    0.0000 </r>
       <r>   14.4057    0.0000 </r>
       <r>   15.4968    0.0000 </r>
       <r>   15.4969    0.0000 </r>
       <r>   15.5180    0.0000 </r>
       <r>   15.5180    0.0000 </r>
       <r>   19.0344    0.0000 </r>
       <r>   19.0345    0.0000 </r>
       <r>   19.5520    0.0000 </r>
       <r>   19.5520    0.0000 </r>
       <r>   20.8112    0.0000 </r>
       <r>   20.8112    0.0000 </r>
       <r>   21.0960    0.0000 </r>
       <r>   21.0960    0.0000 </r>
       <r>   21.2389    0.0000 </r>
       <r>   21.2389    0.0000 </r>
       <r>   21.3219    0.0000 </r>
       <r>   21.3219    0.0000 </r>
       <r>   21.8516    0.0000 </r>
       <r>   21.8516    0.0000 </r>
       <r>   23.4459    0.0000 </r>
       <r>   23.4460    0.0000 </r>
       <r>   25.5971    0.0000 </r>
       <r>   25.6611    0.0000 </r>
       <r>   25.7635    0.0000 </r>
       <r>   25.8712    0.0000 </r>
       <r>   26.0315    0.0000 </r>
       <r>   26.4219    0.0000 </r>
      </set>
      <set comment="kpoint 9">
       <r>  -13.0687    1.0000 </r>
       <r>  -13.0687    1.0000 </r>
       <r>  -13.0625    1.0000 </r>
       <r>  -13.0625    1.0000 </r>
       <r>  -10.5240    1.0000 </r>
       <r>  -10.5240    1.0000 </r>
       <r>  -10.5051    1.0000 </r>
       <r>  -10.5051    1.0000 </r>
       <r>  -10.4943    1.0000 </r>
       <r>  -10.4943    1.0000 </r>
       <r>   -5.3590    1.0000 </r>
       <r>   -5.3589    1.0000 </r>
       <r>   -3.2705    1.0000 </r>
       <r>   -3.2705    1.0000 </r>
       <r>    3.8562    1.0000 </r>
       <r>    3.8562    1.0000 </r>
       <r>    4.4284    1.0000 </r>
       <r>    4.4284    1.0000 </r>
       <r>    4.9836    1.0000 </r>
       <r>    4.9836    1.0000 </r>
       <r>    5.3132    0.0000 </r>
       <r>    5.3132    0.0000 </r>
       <r>    6.4238    0.0000 </r>
       <r>    6.4238    0.0000 </r>
       <r>    6.9034    0.0000 </r>
       <r>    6.9034    0.0000 </r>
       <r>   13.2479    0.0000 </r>
       <r>   13.2480    0.0000 </r>
       <r>   13.9118    0.0000 </r>
       <r>   13.9118    0.0000 </r>
       <r>   14.2788    0.0000 </r>
       <r>   14.2788    0.0000 </r>
       <r>   14.4141    0.0000 </r>
       <r>   14.4141    0.0000 </r>
       <r>   15.5269    0.0000 </r>
       <r>   15.5269    0.0000 </r>
       <r>   15.5860    0.0000 </r>
       <r>   15.5860    0.0000 </r>
       <r>   18.9952    0.0000 </r>
       <r>   18.9953    0.0000 </r>
       <r>   19.5100    0.0000 </r>
       <r>   19.5100    0.0000 </r>
       <r>   20.6966    0.0000 </r>
       <r>   20.6967    0.0000 </r>
       <r>   21.0916    0.0000 </r>
       <r>   21.0916    0.0000 </r>
       <r>   21.2838    0.0000 </r>
       <r>   21.2838    0.0000 </r>
       <r>   21.4230    0.0000 </r>
       <r>   21.4230    0.0000 </r>
       <r>   21.8751    0.0000 </r>
       <r>   21.8751    0.0000 </r>
       <r>   23.5027    0.0000 </r>
       <r>   23.5029    0.0000 </r>
       <r>   25.4338    0.0000 </r>
       <r>   25.4700    0.0000 </r>
       <r>   25.7310    0.0000 </r>
       <r>   25.7520    0.0000 </r>
       <r>   25.8828    0.0000 </r>
       <r>   26.0318    0.0000 </r>
      </set>
      <set comment="kpoint 10">
       <r>  -13.0687    1.0000 </r>
       <r>  -13.0687    1.0000 </r>
       <r>  -13.0625    1.0000 </r>
       <r>  -13.0625    1.0000 </r>
       <r>  -10.5240    1.0000 </r>
       <r>  -10.5240    1.0000 </r>
       <r>  -10.5051    1.0000 </r>
       <r>  -10.5051    1.0000 </r>
       <r>  -10.4943    1.0000 </r>
       <r>  -10.4943    1.0000 </r>
       <r>   -5.3590    1.0000 </r>
       <r>   -5.3589    1.0000 </r>
       <r>   -3.2705    1.0000 </r>
       <r>   -3.2705    1.0000 </r>
       <r>    3.8562    1.0000 </r>
       <r>    3.8562    1.0000 </r>
       <r>    4.4284    1.0000 </r>
       <r>    4.4284    1.0000 </r>
       <r>    4.9836    1.0000 </r>
       <r>    4.9836    1.0000 </r>
       <r>    5.3132    0.0000 </r>
       <r>    5.3132    0.0000 </r>
       <r>    6.4238    0.0000 </r>
       <r>    6.4238    0.0000 </r>
       <r>    6.9034    0.0000 </r>
       <r>    6.9034    0.0000 </r>
       <r>   13.2479    0.0000 </r>
       <r>   13.2480    0.0000 </r>
       <r>   13.9118    0.0000 </r>
       <r>   13.9121    0.0000 </r>
       <r>   14.2788    0.0000 </r>
       <r>   14.2788    0.0000 </r>
       <r>   14.4141    0.0000 </r>
       <r>   14.4141    0.0000 </r>
       <r>   15.5270    0.0000 </r>
       <r>   15.5270    0.0000 </r>
       <r>   15.5861    0.0000 </r>
       <r>   15.5861    0.0000 </r>
       <r>   18.9952    0.0000 </r>
       <r>   18.9953    0.0000 </r>
       <r>   19.5100    0.0000 </r>
       <r>   19.5100    0.0000 </r>
       <r>   20.6966    0.0000 </r>
       <r>   20.6966    0.0000 </r>
       <r>   21.0916    0.0000 </r>
       <r>   21.0916    0.0000 </r>
       <r>   21.2838    0.0000 </r>
       <r>   21.2838    0.0000 </r>
       <r>   21.4230    0.0000 </r>
       <r>   21.4230    0.0000 </r>
       <r>   21.8751    0.0000 </r>
       <r>   21.8751    0.0000 </r>
       <r>   23.5027    0.0000 </r>
       <r>   23.5032    0.0000 </r>
       <r>   25.4359    0.0000 </r>
       <r>   25.4689    0.0000 </r>
       <r>   25.7059    0.0000 </r>
       <r>   25.7851    0.0000 </r>
       <r>   25.9951    0.0000 </r>
       <r>   26.1845    0.0000 </r>
      </set>
      <set comment="kpoint 11">
       <r>  -13.0687    1.0000 </r>
       <r>  -13.0687    1.0000 </r>
       <r>  -13.0625    1.0000 </r>
       <r>  -13.0625    1.0000 </r>
       <r>  -10.5240    1.0000 </r>
       <r>  -10.5240    1.0000 </r>
       <r>  -10.5050    1.0000 </r>
       <r>  -10.5050    1.0000 </r>
       <r>  -10.4943    1.0000 </r>
       <r>  -10.4943    1.0000 </r>
       <r>   -5.3570    1.0000 </r>
       <r>   -5.3570    1.0000 </r>
       <r>   -3.2767    1.0000 </r>
       <r>   -3.2767    1.0000 </r>
       <r>    3.8723    1.0000 </r>
       <r>    3.8723    1.0000 </r>
       <r>    4.4611    1.0000 </r>
       <r>    4.4611    1.0000 </r>
       <r>    5.0386    1.0000 </r>
       <r>    5.0386    1.0000 </r>
       <r>    5.2423    0.0000 </r>
       <r>    5.2423    0.0000 </r>
       <r>    6.3997    0.0000 </r>
       <r>    6.3997    0.0000 </r>
       <r>    6.8786    0.0000 </r>
       <r>    6.8786    0.0000 </r>
       <r>   13.3074    0.0000 </r>
       <r>   13.3074    0.0000 </r>
       <r>   13.9039    0.0000 </r>
       <r>   13.9039    0.0000 </r>
       <r>   14.3125    0.0000 </r>
       <r>   14.3125    0.0000 </r>
       <r>   14.4057    0.0000 </r>
       <r>   14.4057    0.0000 </r>
       <r>   15.4968    0.0000 </r>
       <r>   15.4968    0.0000 </r>
       <r>   15.5180    0.0000 </r>
       <r>   15.5180    0.0000 </r>
       <r>   19.0344    0.0000 </r>
       <r>   19.0345    0.0000 </r>
       <r>   19.5520    0.0000 </r>
       <r>   19.5520    0.0000 </r>
       <r>   20.8112    0.0000 </r>
       <r>   20.8112    0.0000 </r>
       <r>   21.0960    0.0000 </r>
       <r>   21.0960    0.0000 </r>
       <r>   21.2389    0.0000 </r>
       <r>   21.2389    0.0000 </r>
       <r>   21.3219    0.0000 </r>
       <r>   21.3219    0.0000 </r>
       <r>   21.8516    0.0000 </r>
       <r>   21.8516    0.0000 </r>
       <r>   23.4459    0.0000 </r>
       <r>   23.4460    0.0000 </r>
       <r>   25.6003    0.0000 </r>
       <r>   25.6540    0.0000 </r>
       <r>   25.8651    0.0000 </r>
       <r>   25.9141    0.0000 </r>
       <r>   26.0772    0.0000 </r>
       <r>   26.3132    0.0000 </r>
      </set>
      <set comment="kpoint 12">
       <r>  -13.0687    1.0000 </r>
       <r>  -13.0687    1.0000 </r>
       <r>  -13.0625    1.0000 </r>
       <r>  -13.0625    1.0000 </r>
       <r>  -10.5240    1.0000 </r>
       <r>  -10.5240    1.0000 </r>
       <r>  -10.5050    1.0000 </r>
       <r>  -10.5050    1.0000 </r>
       <r>  -10.4943    1.0000 </r>
       <r>  -10.4943    1.0000 </r>
       <r>   -5.3570    1.0000 </r>
       <r>   -5.3570    1.0000 </r>
       <r>   -3.2767    1.0000 </r>
       <r>   -3.2767    1.0000 </r>
       <r>    3.8723    1.0000 </r>
       <r>    3.8723    1.0000 </r>
       <r>    4.4611    1.0000 </r>
       <r>    4.4611    1.0000 </r>
       <r>    5.0386    1.0000 </r>
       <r>    5.0386    1.0000 </r>
       <r>    5.2423    0.0000 </r>
       <r>    5.2423    0.0000 </r>
       <r>    6.3997    0.0000 </r>
       <r>    6.3997    0.0000 </r>
       <r>    6.8786    0.0000 </r>
       <r>    6.8786    0.0000 </r>
       <r>   13.3074    0.0000 </r>
       <r>   13.3074    0.0000 </r>
       <r>   13.9039    0.0000 </r>
       <r>   13.9039    0.0000 </r>
       <r>   14.3125    0.0000 </r>
       <r>   14.3125    0.0000 </r>
       <r>   14.4057    0.0000 </r>
       <r>   14.4057    0.0000 </r>
       <r>   15.4968    0.0000 </r>
       <r>   15.4968    0.0000 </r>
       <r>   15.5180    0.0000 </r>
       <r>   15.5180    0.0000 </r>
       <r>   19.0344    0.0000 </r>
       <r>   19.0345    0.0000 </r>
       <r>   19.5520    0.0000 </r>
       <r>   19.5520    0.0000 </r>
       <r>   20.8112    0.0000 </r>
       <r>   20.8112    0.0000 </r>
       <r>   21.0960    0.0000 </r>
       <r>   21.0960    0.0000 </r>
       <r>   21.2389    0.0000 </r>
       <r>   21.2389    0.0000 </r>
       <r>   21.3219    0.0000 </r>
       <r>   21.3219    0.0000 </r>
       <r>   21.8516    0.0000 </r>
       <r>   21.8516    0.0000 </r>
       <r>   23.4459    0.0000 </r>
       <r>   23.4460    0.0000 </r>
       <r>   25.6147    0.0000 </r>
       <r>   25.6768    0.0000 </r>
       <r>   25.7804    0.0000 </r>
       <r>   25.8535    0.0000 </r>
       <r>   26.0649    0.0000 </r>
       <r>   26.3892    0.0000 </r>
      </set>
      <set comment="kpoint 13">
       <r>  -13.0687    1.0000 </r>
       <r>  -13.0687    1.0000 </r>
       <r>  -13.0625    1.0000 </r>
       <r>  -13.0625    1.0000 </r>
       <r>  -10.5240    1.0000 </r>
       <r>  -10.5240    1.0000 </r>
       <r>  -10.5051    1.0000 </r>
       <r>  -10.5051    1.0000 </r>
       <r>  -10.4943    1.0000 </r>
       <r>  -10.4943    1.0000 </r>
       <r>   -5.3590    1.0000 </r>
       <r>   -5.3589    1.0000 </r>
       <r>   -3.2705    1.0000 </r>
       <r>   -3.2705    1.0000 </r>
       <r>    3.8562    1.0000 </r>
       <r>    3.8562    1.0000 </r>
       <r>    4.4284    1.0000 </r>
       <r>    4.4284    1.0000 </r>
       <r>    4.9836    1.0000 </r>
       <r>    4.9836    1.0000 </r>
       <r>    5.3132    0.0000 </r>
       <r>    5.3132    0.0000 </r>
       <r>    6.4238    0.0000 </r>
       <r>    6.4238    0.0000 </r>
       <r>    6.9034    0.0000 </r>
       <r>    6.9034    0.0000 </r>
       <r>   13.2479    0.0000 </r>
       <r>   13.2480    0.0000 </r>
       <r>   13.9117    0.0000 </r>
       <r>   13.9117    0.0000 </r>
       <r>   14.2787    0.0000 </r>
       <r>   14.2788    0.0000 </r>
       <r>   14.4141    0.0000 </r>
       <r>   14.4141    0.0000 </r>
       <r>   15.5269    0.0000 </r>
       <r>   15.5269    0.0000 </r>
       <r>   15.5859    0.0000 </r>
       <r>   15.5860    0.0000 </r>
       <r>   18.9952    0.0000 </r>
       <r>   18.9953    0.0000 </r>
       <r>   19.5100    0.0000 </r>
       <r>   19.5100    0.0000 </r>
       <r>   20.6966    0.0000 </r>
       <r>   20.6966    0.0000 </r>
       <r>   21.0916    0.0000 </r>
       <r>   21.0916    0.0000 </r>
       <r>   21.2838    0.0000 </r>
       <r>   21.2838    0.0000 </r>
       <r>   21.4230    0.0000 </r>
       <r>   21.4230    0.0000 </r>
       <r>   21.8751    0.0000 </r>
       <r>   21.8751    0.0000 </r>
       <r>   23.5027    0.0000 </r>
       <r>   23.5029    0.0000 </r>
       <r>   25.4186    0.0000 </r>
       <r>   25.4364    0.0000 </r>
       <r>   25.7856    0.0000 </r>
       <r>   25.9090    0.0000 </r>
       <r>   26.0327    0.0000 </r>
       <r>   26.2492    0.0000 </r>
      </set>
      <set comment="kpoint 14">
       <r>  -13.0687    1.0000 </r>
       <r>  -13.0687    1.0000 </r>
       <r>  -13.0626    1.0000 </r>
       <r>  -13.0626    1.0000 </r>
       <r>  -10.5239    1.0000 </r>
       <r>  -10.5239    1.0000 </r>
       <r>  -10.5051    1.0000 </r>
       <r>  -10.5051    1.0000 </r>
       <r>  -10.4944    1.0000 </r>
       <r>  -10.4944    1.0000 </r>
       <r>   -5.3716    1.0000 </r>
       <r>   -5.3716    1.0000 </r>
       <r>   -3.2525    1.0000 </r>
       <r>   -3.2525    1.0000 </r>
       <r>    3.8506    1.0000 </r>
       <r>    3.8506    1.0000 </r>
       <r>    4.4266    1.0000 </r>
       <r>    4.4266    1.0000 </r>
       <r>    4.9689    1.0000 </r>
       <r>    4.9689    1.0000 </r>
       <r>    5.3332    0.0000 </r>
       <r>    5.3332    0.0000 </r>
       <r>    6.4375    0.0000 </r>
       <r>    6.4375    0.0000 </r>
       <r>    6.9131    0.0000 </r>
       <r>    6.9131    0.0000 </r>
       <r>   13.1335    0.0000 </r>
       <r>   13.1335    0.0000 </r>
       <r>   13.9562    0.0000 </r>
       <r>   13.9563    0.0000 </r>
       <r>   14.2211    0.0000 </r>
       <r>   14.2213    0.0000 </r>
       <r>   14.4106    0.0000 </r>
       <r>   14.4106    0.0000 </r>
       <r>   15.5387    0.0000 </r>
       <r>   15.5387    0.0000 </r>
       <r>   15.7319    0.0000 </r>
       <r>   15.7319    0.0000 </r>
       <r>   18.9072    0.0000 </r>
       <r>   18.9072    0.0000 </r>
       <r>   19.4108    0.0000 </r>
       <r>   19.4108    0.0000 </r>
       <r>   20.4050    0.0000 </r>
       <r>   20.4050    0.0000 </r>
       <r>   21.1297    0.0000 </r>
       <r>   21.1298    0.0000 </r>
       <r>   21.4525    0.0000 </r>
       <r>   21.4525    0.0000 </r>
       <r>   21.5907    0.0000 </r>
       <r>   21.5907    0.0000 </r>
       <r>   21.8283    0.0000 </r>
       <r>   21.8283    0.0000 </r>
       <r>   23.6861    0.0000 </r>
       <r>   23.6863    0.0000 </r>
       <r>   25.3606    0.0000 </r>
       <r>   25.4614    0.0000 </r>
       <r>   25.6685    0.0000 </r>
       <r>   25.8391    0.0000 </r>
       <r>   25.9087    0.0000 </r>
       <r>   26.2505    0.0000 </r>
      </set>
      <set comment="kpoint 15">
       <r>  -13.0687    1.0000 </r>
       <r>  -13.0687    1.0000 </r>
       <r>  -13.0625    1.0000 </r>
       <r>  -13.0625    1.0000 </r>
       <r>  -10.5240    1.0000 </r>
       <r>  -10.5240    1.0000 </r>
       <r>  -10.5051    1.0000 </r>
       <r>  -10.5051    1.0000 </r>
       <r>  -10.4943    1.0000 </r>
       <r>  -10.4943    1.0000 </r>
       <r>   -5.3647    1.0000 </r>
       <r>   -5.3647    1.0000 </r>
       <r>   -3.2635    1.0000 </r>
       <r>   -3.2635    1.0000 </r>
       <r>    3.8584    1.0000 </r>
       <r>    3.8584    1.0000 </r>
       <r>    4.4380    1.0000 </r>
       <r>    4.4380    1.0000 </r>
       <r>    4.9932    1.0000 </r>
       <r>    4.9932    1.0000 </r>
       <r>    5.3014    0.0000 </r>
       <r>    5.3014    0.0000 </r>
       <r>    6.4225    0.0000 </r>
       <r>    6.4225    0.0000 </r>
       <r>    6.9004    0.0000 </r>
       <r>    6.9004    0.0000 </r>
       <r>   13.2059    0.0000 </r>
       <r>   13.2059    0.0000 </r>
       <r>   13.9381    0.0000 </r>
       <r>   13.9381    0.0000 </r>
       <r>   14.2555    0.0000 </r>
       <r>   14.2555    0.0000 </r>
       <r>   14.4077    0.0000 </r>
       <r>   14.4077    0.0000 </r>
       <r>   15.5248    0.0000 </r>
       <r>   15.5249    0.0000 </r>
       <r>   15.6396    0.0000 </r>
       <r>   15.6397    0.0000 </r>
       <r>   18.9624    0.0000 </r>
       <r>   18.9625    0.0000 </r>
       <r>   19.4724    0.0000 </r>
       <r>   19.4725    0.0000 </r>
       <r>   20.5489    0.0000 </r>
       <r>   20.5489    0.0000 </r>
       <r>   21.1222    0.0000 </r>
       <r>   21.1222    0.0000 </r>
       <r>   21.3657    0.0000 </r>
       <r>   21.3657    0.0000 </r>
       <r>   21.5244    0.0000 </r>
       <r>   21.5244    0.0000 </r>
       <r>   21.8076    0.0000 </r>
       <r>   21.8076    0.0000 </r>
       <r>   23.5828    0.0000 </r>
       <r>   23.5831    0.0000 </r>
       <r>   25.5053    0.0000 </r>
       <r>   25.6128    0.0000 </r>
       <r>   25.7377    0.0000 </r>
       <r>   25.8677    0.0000 </r>
       <r>   26.0213    0.0000 </r>
       <r>   26.4344    0.0000 </r>
      </set>
      <set comment="kpoint 16">
       <r>  -13.0687    1.0000 </r>
       <r>  -13.0687    1.0000 </r>
       <r>  -13.0625    1.0000 </r>
       <r>  -13.0625    1.0000 </r>
       <r>  -10.5240    1.0000 </r>
       <r>  -10.5240    1.0000 </r>
       <r>  -10.5051    1.0000 </r>
       <r>  -10.5051    1.0000 </r>
       <r>  -10.4943    1.0000 </r>
       <r>  -10.4943    1.0000 </r>
       <r>   -5.3545    1.0000 </r>
       <r>   -5.3545    1.0000 </r>
       <r>   -3.2734    1.0000 </r>
       <r>   -3.2734    1.0000 </r>
       <r>    3.8442    1.0000 </r>
       <r>    3.8442    1.0000 </r>
       <r>    4.3981    1.0000 </r>
       <r>    4.3981    1.0000 </r>
       <r>    4.9449    1.0000 </r>
       <r>    4.9449    1.0000 </r>
       <r>    5.3634    0.0000 </r>
       <r>    5.3634    0.0000 </r>
       <r>    6.4417    0.0000 </r>
       <r>    6.4417    0.0000 </r>
       <r>    6.9215    0.0000 </r>
       <r>    6.9215    0.0000 </r>
       <r>   13.2523    0.0000 </r>
       <r>   13.2523    0.0000 </r>
       <r>   13.8863    0.0000 </r>
       <r>   13.8863    0.0000 </r>
       <r>   14.2994    0.0000 </r>
       <r>   14.2995    0.0000 </r>
       <r>   14.4126    0.0000 </r>
       <r>   14.4126    0.0000 </r>
       <r>   15.5321    0.0000 </r>
       <r>   15.5322    0.0000 </r>
       <r>   15.5902    0.0000 </r>
       <r>   15.5903    0.0000 </r>
       <r>   19.0076    0.0000 </r>
       <r>   19.0077    0.0000 </r>
       <r>   19.5161    0.0000 </r>
       <r>   19.5162    0.0000 </r>
       <r>   20.8231    0.0000 </r>
       <r>   20.8231    0.0000 </r>
       <r>   21.0409    0.0000 </r>
       <r>   21.0409    0.0000 </r>
       <r>   21.2365    0.0000 </r>
       <r>   21.2365    0.0000 </r>
       <r>   21.3462    0.0000 </r>
       <r>   21.3462    0.0000 </r>
       <r>   21.9629    0.0000 </r>
       <r>   21.9629    0.0000 </r>
       <r>   23.4545    0.0000 </r>
       <r>   23.4545    0.0000 </r>
       <r>   25.3170    0.0000 </r>
       <r>   25.3352    0.0000 </r>
       <r>   25.7296    0.0000 </r>
       <r>   25.7724    0.0000 </r>
       <r>   26.0209    0.0000 </r>
       <r>   26.2275    0.0000 </r>
      </set>
      <set comment="kpoint 17">
       <r>  -13.0687    1.0000 </r>
       <r>  -13.0687    1.0000 </r>
       <r>  -13.0625    1.0000 </r>
       <r>  -13.0625    1.0000 </r>
       <r>  -10.5240    1.0000 </r>
       <r>  -10.5240    1.0000 </r>
       <r>  -10.5052    1.0000 </r>
       <r>  -10.5052    1.0000 </r>
       <r>  -10.4943    1.0000 </r>
       <r>  -10.4943    1.0000 </r>
       <r>   -5.3514    1.0000 </r>
       <r>   -5.3514    1.0000 </r>
       <r>   -3.2722    1.0000 </r>
       <r>   -3.2722    1.0000 </r>
       <r>    3.8218    1.0000 </r>
       <r>    3.8218    1.0000 </r>
       <r>    4.3496    1.0000 </r>
       <r>    4.3496    1.0000 </r>
       <r>    4.8975    1.0000 </r>
       <r>    4.8975    1.0000 </r>
       <r>    5.4308    0.0000 </r>
       <r>    5.4308    0.0000 </r>
       <r>    6.4748    0.0000 </r>
       <r>    6.4748    0.0000 </r>
       <r>    6.9555    0.0000 </r>
       <r>    6.9555    0.0000 </r>
       <r>   13.2194    0.0000 </r>
       <r>   13.2194    0.0000 </r>
       <r>   13.8611    0.0000 </r>
       <r>   13.8612    0.0000 </r>
       <r>   14.3103    0.0000 </r>
       <r>   14.3104    0.0000 </r>
       <r>   14.4108    0.0000 </r>
       <r>   14.4108    0.0000 </r>
       <r>   15.5513    0.0000 </r>
       <r>   15.5513    0.0000 </r>
       <r>   15.6419    0.0000 </r>
       <r>   15.6419    0.0000 </r>
       <r>   18.9967    0.0000 </r>
       <r>   18.9967    0.0000 </r>
       <r>   19.4928    0.0000 </r>
       <r>   19.4928    0.0000 </r>
       <r>   20.8534    0.0000 </r>
       <r>   20.8534    0.0000 </r>
       <r>   21.0212    0.0000 </r>
       <r>   21.0212    0.0000 </r>
       <r>   21.2370    0.0000 </r>
       <r>   21.2370    0.0000 </r>
       <r>   21.3191    0.0000 </r>
       <r>   21.3191    0.0000 </r>
       <r>   22.0522    0.0000 </r>
       <r>   22.0522    0.0000 </r>
       <r>   23.4428    0.0000 </r>
       <r>   23.4429    0.0000 </r>
       <r>   25.1430    0.0000 </r>
       <r>   25.1740    0.0000 </r>
       <r>   25.6705    0.0000 </r>
       <r>   25.7263    0.0000 </r>
       <r>   25.8543    0.0000 </r>
       <r>   26.0231    0.0000 </r>
      </set>
      <set comment="kpoint 18">
       <r>  -13.0687    1.0000 </r>
       <r>  -13.0687    1.0000 </r>
       <r>  -13.0625    1.0000 </r>
       <r>  -13.0625    1.0000 </r>
       <r>  -10.5240    1.0000 </r>
       <r>  -10.5240    1.0000 </r>
       <r>  -10.5051    1.0000 </r>
       <r>  -10.5051    1.0000 </r>
       <r>  -10.4943    1.0000 </r>
       <r>  -10.4943    1.0000 </r>
       <r>   -5.3647    1.0000 </r>
       <r>   -5.3647    1.0000 </r>
       <r>   -3.2635    1.0000 </r>
       <r>   -3.2635    1.0000 </r>
       <r>    3.8584    1.0000 </r>
       <r>    3.8584    1.0000 </r>
       <r>    4.4380    1.0000 </r>
       <r>    4.4380    1.0000 </r>
       <r>    4.9932    1.0000 </r>
       <r>    4.9932    1.0000 </r>
       <r>    5.3014    0.0000 </r>
       <r>    5.3014    0.0000 </r>
       <r>    6.4225    0.0000 </r>
       <r>    6.4225    0.0000 </r>
       <r>    6.9004    0.0000 </r>
       <r>    6.9004    0.0000 </r>
       <r>   13.2059    0.0000 </r>
       <r>   13.2059    0.0000 </r>
       <r>   13.9381    0.0000 </r>
       <r>   13.9382    0.0000 </r>
       <r>   14.2556    0.0000 </r>
       <r>   14.2556    0.0000 </r>
       <r>   14.4077    0.0000 </r>
       <r>   14.4077    0.0000 </r>
       <r>   15.5249    0.0000 </r>
       <r>   15.5249    0.0000 </r>
       <r>   15.6397    0.0000 </r>
       <r>   15.6397    0.0000 </r>
       <r>   18.9624    0.0000 </r>
       <r>   18.9625    0.0000 </r>
       <r>   19.4724    0.0000 </r>
       <r>   19.4725    0.0000 </r>
       <r>   20.5489    0.0000 </r>
       <r>   20.5489    0.0000 </r>
       <r>   21.1222    0.0000 </r>
       <r>   21.1222    0.0000 </r>
       <r>   21.3657    0.0000 </r>
       <r>   21.3657    0.0000 </r>
       <r>   21.5244    0.0000 </r>
       <r>   21.5244    0.0000 </r>
       <r>   21.8076    0.0000 </r>
       <r>   21.8076    0.0000 </r>
       <r>   23.5818    0.0000 </r>
       <r>   23.5822    0.0000 </r>
       <r>   25.4392    0.0000 </r>
       <r>   25.5602    0.0000 </r>
       <r>   25.7339    0.0000 </r>
       <r>   25.8342    0.0000 </r>
       <r>   25.9016    0.0000 </r>
       <r>   26.4810    0.0000 </r>
      </set>
      <set comment="kpoint 19">
       <r>  -13.0687    1.0000 </r>
       <r>  -13.0687    1.0000 </r>
       <r>  -13.0625    1.0000 </r>
       <r>  -13.0625    1.0000 </r>
       <r>  -10.5240    1.0000 </r>
       <r>  -10.5240    1.0000 </r>
       <r>  -10.5050    1.0000 </r>
       <r>  -10.5050    1.0000 </r>
       <r>  -10.4943    1.0000 </r>
       <r>  -10.4943    1.0000 </r>
       <r>   -5.3602    1.0000 </r>
       <r>   -5.3602    1.0000 </r>
       <r>   -3.2721    1.0000 </r>
       <r>   -3.2721    1.0000 </r>
       <r>    3.8707    1.0000 </r>
       <r>    3.8707    1.0000 </r>
       <r>    4.4604    1.0000 </r>
       <r>    4.4604    1.0000 </r>
       <r>    5.0348    1.0000 </r>
       <r>    5.0348    1.0000 </r>
       <r>    5.2476    0.0000 </r>
       <r>    5.2476    0.0000 </r>
       <r>    6.4031    0.0000 </r>
       <r>    6.4031    0.0000 </r>
       <r>    6.8813    0.0000 </r>
       <r>    6.8813    0.0000 </r>
       <r>   13.2737    0.0000 </r>
       <r>   13.2737    0.0000 </r>
       <r>   13.9227    0.0000 </r>
       <r>   13.9227    0.0000 </r>
       <r>   14.2917    0.0000 </r>
       <r>   14.2918    0.0000 </r>
       <r>   14.4035    0.0000 </r>
       <r>   14.4035    0.0000 </r>
       <r>   15.5019    0.0000 </r>
       <r>   15.5019    0.0000 </r>
       <r>   15.5577    0.0000 </r>
       <r>   15.5577    0.0000 </r>
       <r>   19.0113    0.0000 </r>
       <r>   19.0113    0.0000 </r>
       <r>   19.5245    0.0000 </r>
       <r>   19.5245    0.0000 </r>
       <r>   20.6842    0.0000 </r>
       <r>   20.6843    0.0000 </r>
       <r>   21.1098    0.0000 </r>
       <r>   21.1098    0.0000 </r>
       <r>   21.3297    0.0000 </r>
       <r>   21.3297    0.0000 </r>
       <r>   21.3939    0.0000 </r>
       <r>   21.3939    0.0000 </r>
       <r>   21.8087    0.0000 </r>
       <r>   21.8087    0.0000 </r>
       <r>   23.4979    0.0000 </r>
       <r>   23.4979    0.0000 </r>
       <r>   25.6152    0.0000 </r>
       <r>   25.6983    0.0000 </r>
       <r>   25.7822    0.0000 </r>
       <r>   25.9013    0.0000 </r>
       <r>   25.9673    0.0000 </r>
       <r>   26.4888    0.0000 </r>
      </set>
      <set comment="kpoint 20">
       <r>  -13.0687    1.0000 </r>
       <r>  -13.0687    1.0000 </r>
       <r>  -13.0625    1.0000 </r>
       <r>  -13.0625    1.0000 </r>
       <r>  -10.5240    1.0000 </r>
       <r>  -10.5240    1.0000 </r>
       <r>  -10.5051    1.0000 </r>
       <r>  -10.5051    1.0000 </r>
       <r>  -10.4943    1.0000 </r>
       <r>  -10.4943    1.0000 </r>
       <r>   -5.3551    1.0000 </r>
       <r>   -5.3551    1.0000 </r>
       <r>   -3.2771    1.0000 </r>
       <r>   -3.2771    1.0000 </r>
       <r>    3.8637    1.0000 </r>
       <r>    3.8637    1.0000 </r>
       <r>    4.4395    1.0000 </r>
       <r>    4.4395    1.0000 </r>
       <r>    4.9973    1.0000 </r>
       <r>    4.9973    1.0000 </r>
       <r>    5.2926    0.0000 </r>
       <r>    5.2926    0.0000 </r>
       <r>    6.4131    0.0000 </r>
       <r>    6.4131    0.0000 </r>
       <r>    6.8918    0.0000 </r>
       <r>    6.8918    0.0000 </r>
       <r>   13.2994    0.0000 </r>
       <r>   13.2994    0.0000 </r>
       <r>   13.8929    0.0000 </r>
       <r>   13.8930    0.0000 </r>
       <r>   14.3221    0.0000 </r>
       <r>   14.3222    0.0000 </r>
       <r>   14.4006    0.0000 </r>
       <r>   14.4006    0.0000 </r>
       <r>   15.5036    0.0000 </r>
       <r>   15.5036    0.0000 </r>
       <r>   15.5331    0.0000 </r>
       <r>   15.5331    0.0000 </r>
       <r>   19.0342    0.0000 </r>
       <r>   19.0342    0.0000 </r>
       <r>   19.5480    0.0000 </r>
       <r>   19.5480    0.0000 </r>
       <r>   20.8751    0.0000 </r>
       <r>   20.8751    0.0000 </r>
       <r>   21.0714    0.0000 </r>
       <r>   21.0714    0.0000 </r>
       <r>   21.1892    0.0000 </r>
       <r>   21.1892    0.0000 </r>
       <r>   21.3077    0.0000 </r>
       <r>   21.3077    0.0000 </r>
       <r>   21.9052    0.0000 </r>
       <r>   21.9053    0.0000 </r>
       <r>   23.4307    0.0000 </r>
       <r>   23.4331    0.0000 </r>
       <r>   25.5086    0.0000 </r>
       <r>   25.6458    0.0000 </r>
       <r>   25.8117    0.0000 </r>
       <r>   25.8555    0.0000 </r>
       <r>   26.0236    0.0000 </r>
       <r>   26.4265    0.0000 </r>
      </set>
      <set comment="kpoint 21">
       <r>  -13.0687    1.0000 </r>
       <r>  -13.0687    1.0000 </r>
       <r>  -13.0625    1.0000 </r>
       <r>  -13.0625    1.0000 </r>
       <r>  -10.5240    1.0000 </r>
       <r>  -10.5240    1.0000 </r>
       <r>  -10.5051    1.0000 </r>
       <r>  -10.5051    1.0000 </r>
       <r>  -10.4943    1.0000 </r>
       <r>  -10.4943    1.0000 </r>
       <r>   -5.3545    1.0000 </r>
       <r>   -5.3545    1.0000 </r>
       <r>   -3.2734    1.0000 </r>
       <r>   -3.2734    1.0000 </r>
       <r>    3.8442    1.0000 </r>
       <r>    3.8442    1.0000 </r>
       <r>    4.3981    1.0000 </r>
       <r>    4.3981    1.0000 </r>
       <r>    4.9449    1.0000 </r>
       <r>    4.9449    1.0000 </r>
       <r>    5.3634    0.0000 </r>
       <r>    5.3634    0.0000 </r>
       <r>    6.4417    0.0000 </r>
       <r>    6.4417    0.0000 </r>
       <r>    6.9215    0.0000 </r>
       <r>    6.9215    0.0000 </r>
       <r>   13.2523    0.0000 </r>
       <r>   13.2523    0.0000 </r>
       <r>   13.8863    0.0000 </r>
       <r>   13.8863    0.0000 </r>
       <r>   14.2995    0.0000 </r>
       <r>   14.2995    0.0000 </r>
       <r>   14.4126    0.0000 </r>
       <r>   14.4126    0.0000 </r>
       <r>   15.5321    0.0000 </r>
       <r>   15.5322    0.0000 </r>
       <r>   15.5902    0.0000 </r>
       <r>   15.5903    0.0000 </r>
       <r>   19.0076    0.0000 </r>
       <r>   19.0077    0.0000 </r>
       <r>   19.5161    0.0000 </r>
       <r>   19.5162    0.0000 </r>
       <r>   20.8231    0.0000 </r>
       <r>   20.8231    0.0000 </r>
       <r>   21.0409    0.0000 </r>
       <r>   21.0409    0.0000 </r>
       <r>   21.2365    0.0000 </r>
       <r>   21.2365    0.0000 </r>
       <r>   21.3462    0.0000 </r>
       <r>   21.3462    0.0000 </r>
       <r>   21.9629    0.0000 </r>
       <r>   21.9629    0.0000 </r>
       <r>   23.4544    0.0000 </r>
       <r>   23.4545    0.0000 </r>
       <r>   25.3254    0.0000 </r>
       <r>   25.4348    0.0000 </r>
       <r>   25.7097    0.0000 </r>
       <r>   25.7618    0.0000 </r>
       <r>   25.9776    0.0000 </r>
       <r>   26.2503    0.0000 </r>
      </set>
      <set comment="kpoint 22">
       <r>  -13.0687    1.0000 </r>
       <r>  -13.0687    1.0000 </r>
       <r>  -13.0625    1.0000 </r>
       <r>  -13.0625    1.0000 </r>
       <r>  -10.5240    1.0000 </r>
       <r>  -10.5240    1.0000 </r>
       <r>  -10.5051    1.0000 </r>
       <r>  -10.5051    1.0000 </r>
       <r>  -10.4943    1.0000 </r>
       <r>  -10.4943    1.0000 </r>
       <r>   -5.3545    1.0000 </r>
       <r>   -5.3545    1.0000 </r>
       <r>   -3.2734    1.0000 </r>
       <r>   -3.2734    1.0000 </r>
       <r>    3.8442    1.0000 </r>
       <r>    3.8442    1.0000 </r>
       <r>    4.3981    1.0000 </r>
       <r>    4.3981    1.0000 </r>
       <r>    4.9449    1.0000 </r>
       <r>    4.9449    1.0000 </r>
       <r>    5.3634    0.0000 </r>
       <r>    5.3634    0.0000 </r>
       <r>    6.4417    0.0000 </r>
       <r>    6.4417    0.0000 </r>
       <r>    6.9215    0.0000 </r>
       <r>    6.9215    0.0000 </r>
       <r>   13.2523    0.0000 </r>
       <r>   13.2523    0.0000 </r>
       <r>   13.8863    0.0000 </r>
       <r>   13.8863    0.0000 </r>
       <r>   14.2995    0.0000 </r>
       <r>   14.2995    0.0000 </r>
       <r>   14.4126    0.0000 </r>
       <r>   14.4128    0.0000 </r>
       <r>   15.5322    0.0000 </r>
       <r>   15.5322    0.0000 </r>
       <r>   15.5903    0.0000 </r>
       <r>   15.5903    0.0000 </r>
       <r>   19.0076    0.0000 </r>
       <r>   19.0077    0.0000 </r>
       <r>   19.5161    0.0000 </r>
       <r>   19.5162    0.0000 </r>
       <r>   20.8231    0.0000 </r>
       <r>   20.8231    0.0000 </r>
       <r>   21.0409    0.0000 </r>
       <r>   21.0409    0.0000 </r>
       <r>   21.2365    0.0000 </r>
       <r>   21.2365    0.0000 </r>
       <r>   21.3462    0.0000 </r>
       <r>   21.3462    0.0000 </r>
       <r>   21.9629    0.0000 </r>
       <r>   21.9629    0.0000 </r>
       <r>   23.4545    0.0000 </r>
       <r>   23.4545    0.0000 </r>
       <r>   25.3215    0.0000 </r>
       <r>   25.3837    0.0000 </r>
       <r>   25.7275    0.0000 </r>
       <r>   25.8394    0.0000 </r>
       <r>   26.1762    0.0000 </r>
       <r>   26.3464    0.0000 </r>
      </set>
      <set comment="kpoint 23">
       <r>  -13.0687    1.0000 </r>
       <r>  -13.0687    1.0000 </r>
       <r>  -13.0625    1.0000 </r>
       <r>  -13.0625    1.0000 </r>
       <r>  -10.5240    1.0000 </r>
       <r>  -10.5240    1.0000 </r>
       <r>  -10.5051    1.0000 </r>
       <r>  -10.5051    1.0000 </r>
       <r>  -10.4943    1.0000 </r>
       <r>  -10.4943    1.0000 </r>
       <r>   -5.3551    1.0000 </r>
       <r>   -5.3551    1.0000 </r>
       <r>   -3.2771    1.0000 </r>
       <r>   -3.2771    1.0000 </r>
       <r>    3.8637    1.0000 </r>
       <r>    3.8637    1.0000 </r>
       <r>    4.4395    1.0000 </r>
       <r>    4.4395    1.0000 </r>
       <r>    4.9973    1.0000 </r>
       <r>    4.9973    1.0000 </r>
       <r>    5.2926    0.0000 </r>
       <r>    5.2926    0.0000 </r>
       <r>    6.4131    0.0000 </r>
       <r>    6.4131    0.0000 </r>
       <r>    6.8918    0.0000 </r>
       <r>    6.8918    0.0000 </r>
       <r>   13.2994    0.0000 </r>
       <r>   13.2994    0.0000 </r>
       <r>   13.8929    0.0000 </r>
       <r>   13.8930    0.0000 </r>
       <r>   14.3221    0.0000 </r>
       <r>   14.3222    0.0000 </r>
       <r>   14.4006    0.0000 </r>
       <r>   14.4006    0.0000 </r>
       <r>   15.5036    0.0000 </r>
       <r>   15.5036    0.0000 </r>
       <r>   15.5331    0.0000 </r>
       <r>   15.5332    0.0000 </r>
       <r>   19.0342    0.0000 </r>
       <r>   19.0342    0.0000 </r>
       <r>   19.5480    0.0000 </r>
       <r>   19.5480    0.0000 </r>
       <r>   20.8751    0.0000 </r>
       <r>   20.8751    0.0000 </r>
       <r>   21.0714    0.0000 </r>
       <r>   21.0714    0.0000 </r>
       <r>   21.1892    0.0000 </r>
       <r>   21.1892    0.0000 </r>
       <r>   21.3077    0.0000 </r>
       <r>   21.3077    0.0000 </r>
       <r>   21.9052    0.0000 </r>
       <r>   21.9052    0.0000 </r>
       <r>   23.4308    0.0000 </r>
       <r>   23.4314    0.0000 </r>
       <r>   25.5233    0.0000 </r>
       <r>   25.5762    0.0000 </r>
       <r>   25.7734    0.0000 </r>
       <r>   25.8415    0.0000 </r>
       <r>   26.1649    0.0000 </r>
       <r>   26.3491    0.0000 </r>
      </set>
      <set comment="kpoint 24">
       <r>  -13.0687    1.0000 </r>
       <r>  -13.0687    1.0000 </r>
       <r>  -13.0625    1.0000 </r>
       <r>  -13.0625    1.0000 </r>
       <r>  -10.5240    1.0000 </r>
       <r>  -10.5240    1.0000 </r>
       <r>  -10.5050    1.0000 </r>
       <r>  -10.5050    1.0000 </r>
       <r>  -10.4943    1.0000 </r>
       <r>  -10.4943    1.0000 </r>
       <r>   -5.3602    1.0000 </r>
       <r>   -5.3602    1.0000 </r>
       <r>   -3.2721    1.0000 </r>
       <r>   -3.2721    1.0000 </r>
       <r>    3.8707    1.0000 </r>
       <r>    3.8707    1.0000 </r>
       <r>    4.4604    1.0000 </r>
       <r>    4.4604    1.0000 </r>
       <r>    5.0348    1.0000 </r>
       <r>    5.0348    1.0000 </r>
       <r>    5.2476    0.0000 </r>
       <r>    5.2476    0.0000 </r>
       <r>    6.4031    0.0000 </r>
       <r>    6.4031    0.0000 </r>
       <r>    6.8813    0.0000 </r>
       <r>    6.8813    0.0000 </r>
       <r>   13.2737    0.0000 </r>
       <r>   13.2737    0.0000 </r>
       <r>   13.9227    0.0000 </r>
       <r>   13.9228    0.0000 </r>
       <r>   14.2917    0.0000 </r>
       <r>   14.2918    0.0000 </r>
       <r>   14.4035    0.0000 </r>
       <r>   14.4035    0.0000 </r>
       <r>   15.5019    0.0000 </r>
[...]
       <r>    15.7973     0.0000     0.0000 </r>
       <r>    15.9428     0.0000     0.0000 </r>
       <r>    16.0884     0.0000     0.0000 </r>
       <r>    16.2339     0.0000     0.0000 </r>
       <r>    16.3794     0.0000     0.0000 </r>
       <r>    16.5249     0.0000     0.0000 </r>
       <r>    16.6704     0.0000     0.0000 </r>
       <r>    16.8160     0.0000     0.0000 </r>
       <r>    16.9615     0.0000     0.0000 </r>
       <r>    17.1070     0.0000     0.0000 </r>
       <r>    17.2525     0.0000     0.0000 </r>
       <r>    17.3980     0.0000     0.0000 </r>
       <r>    17.5436     0.0000     0.0000 </r>
       <r>    17.6891     0.0000     0.0000 </r>
       <r>    17.8346     0.0000     0.0000 </r>
       <r>    17.9801     0.0000     0.0000 </r>
       <r>    18.1256     0.0000     0.0000 </r>
       <r>    18.2712     0.0000     0.0000 </r>
       <r>    18.4167     0.0000     0.0000 </r>
       <r>    18.5622     0.0000     0.0000 </r>
       <r>    18.7077     0.0000     0.0000 </r>
       <r>    18.8532     0.0000     0.0000 </r>
       <r>    18.9988     0.0000     0.0000 </r>
       <r>    19.1443     0.0000     0.0000 </r>
       <r>    19.2898     0.0000     0.0000 </r>
       <r>    19.4353     0.0000     0.0000 </r>
       <r>    19.5809     0.0000     0.0000 </r>
       <r>    19.7264     0.0000     0.0000 </r>
       <r>    19.8719     0.0000     0.0000 </r>
       <r>    20.0174     0.0000     0.0000 </r>
       <r>    20.1629     0.0000     0.0000 </r>
       <r>    20.3085     0.0000     0.0000 </r>
       <r>    20.4540     0.0000     0.0000 </r>
       <r>    20.5995     0.0000     0.0000 </r>
       <r>    20.7450     0.0000     0.0000 </r>
       <r>    20.8905     0.0000     0.0000 </r>
       <r>    21.0361     0.0000     0.0000 </r>
       <r>    21.1816     0.0000     0.0000 </r>
       <r>    21.3271     0.0000     0.0000 </r>
       <r>    21.4726     0.0000     0.0000 </r>
       <r>    21.6181     0.0000     0.0000 </r>
       <r>    21.7637     0.0000     0.0000 </r>
       <r>    21.9092     0.0000     0.0000 </r>
       <r>    22.0547     0.0000     0.0000 </r>
       <r>    22.2002     0.0000     0.0000 </r>
       <r>    22.3457     0.0000     0.0000 </r>
       <r>    22.4913     0.0000     0.0000 </r>
       <r>    22.6368     0.0000     0.0000 </r>
       <r>    22.7823     0.0000     0.0000 </r>
       <r>    22.9278     0.0000     0.0000 </r>
       <r>    23.0733     0.0000     0.0000 </r>
       <r>    23.2189     0.0000     0.0000 </r>
       <r>    23.3644     0.0000     0.0000 </r>
       <r>    23.5099     0.0000     0.0000 </r>
       <r>    23.6554     0.0000     0.0000 </r>
       <r>    23.8009     0.0000     0.0000 </r>
       <r>    23.9465     0.0000     0.0000 </r>
       <r>    24.0920     0.0000     0.0000 </r>
       <r>    24.2375     0.0000     0.0000 </r>
       <r>    24.3830     0.0000     0.0000 </r>
       <r>    24.5285     0.0000     0.0000 </r>
       <r>    24.6741     0.0000     0.0000 </r>
       <r>    24.8196     0.0000     0.0000 </r>
       <r>    24.9651     0.0000     0.0000 </r>
       <r>    25.1106     0.0000     0.0000 </r>
       <r>    25.2562     0.0000     0.0000 </r>
       <r>    25.4017     0.0000     0.0000 </r>
       <r>    25.5472     0.0000     0.0000 </r>
       <r>    25.6927     0.0000     0.0000 </r>
       <r>    25.8382     0.0000     0.0000 </r>
       <r>    25.9838     0.0000     0.0000 </r>
       <r>    26.1293     0.0000     0.0000 </r>
       <r>    26.2748     0.0000     0.0000 </r>
       <r>    26.4203     0.0000     0.0000 </r>
       <r>    26.5658     0.0000     0.0000 </r>
       <r>    26.7114     0.0000     0.0000 </r>
       <r>    26.8569     0.0000     0.0000 </r>
       <r>    27.0024     0.0000     0.0000 </r>
       <r>    27.1479     0.0000     0.0000 </r>
       <r>    27.2934     0.0000     0.0000 </r>
       <r>    27.4390     0.0000     0.0000 </r>
       <r>    27.5845     0.0000     0.0000 </r>
       <r>    27.7300     0.0000     0.0000 </r>
       <r>    27.8755     0.0000     0.0000 </r>
       <r>    28.0210     0.0000     0.0000 </r>
       <r>    28.1666     0.0000     0.0000 </r>
       <r>    28.3121     0.0000     0.0000 </r>
       <r>    28.4576     0.0000     0.0000 </r>
       <r>    28.6031     0.0000     0.0000 </r>
      </set>
      <set comment="spin 4">
       <r>   -15.0530     0.0000     0.0000 </r>
       <r>   -14.9075     0.0000     0.0000 </r>
       <r>   -14.7620     0.0000     0.0000 </r>
       <r>   -14.6165     0.0000     0.0000 </r>
       <r>   -14.4710     0.0000     0.0000 </r>
       <r>   -14.3254     0.0000     0.0000 </r>
       <r>   -14.1799     0.0000     0.0000 </r>
       <r>   -14.0344     0.0000     0.0000 </r>
       <r>   -13.8889     0.0000     0.0000 </r>
       <r>   -13.7434     0.0000     0.0000 </r>
       <r>   -13.5978     0.0000     0.0000 </r>
       <r>   -13.4523     0.0000     0.0000 </r>
       <r>   -13.3068     0.0000     0.0000 </r>
       <r>   -13.1613     0.0000     0.0000 </r>
       <r>   -13.0158     0.0000     0.0000 </r>
       <r>   -12.8702     0.0000     0.0000 </r>
       <r>   -12.7247     0.0000     0.0000 </r>
       <r>   -12.5792     0.0000     0.0000 </r>
       <r>   -12.4337     0.0000     0.0000 </r>
       <r>   -12.2882     0.0000     0.0000 </r>
       <r>   -12.1426     0.0000     0.0000 </r>
       <r>   -11.9971     0.0000     0.0000 </r>
       <r>   -11.8516     0.0000     0.0000 </r>
       <r>   -11.7061     0.0000     0.0000 </r>
       <r>   -11.5606     0.0000     0.0000 </r>
       <r>   -11.4150     0.0000     0.0000 </r>
       <r>   -11.2695     0.0000     0.0000 </r>
       <r>   -11.1240     0.0000     0.0000 </r>
       <r>   -10.9785     0.0000     0.0000 </r>
       <r>   -10.8330     0.0000     0.0000 </r>
       <r>   -10.6874     0.0000     0.0000 </r>
       <r>   -10.5419     0.0000     0.0000 </r>
       <r>   -10.3964     0.0000     0.0000 </r>
       <r>   -10.2509     0.0000     0.0000 </r>
       <r>   -10.1053     0.0000     0.0000 </r>
       <r>    -9.9598     0.0000     0.0000 </r>
       <r>    -9.8143     0.0000     0.0000 </r>
       <r>    -9.6688     0.0000     0.0000 </r>
       <r>    -9.5233     0.0000     0.0000 </r>
       <r>    -9.3777     0.0000     0.0000 </r>
       <r>    -9.2322     0.0000     0.0000 </r>
       <r>    -9.0867     0.0000     0.0000 </r>
       <r>    -8.9412     0.0000     0.0000 </r>
       <r>    -8.7957     0.0000     0.0000 </r>
       <r>    -8.6501     0.0000     0.0000 </r>
       <r>    -8.5046     0.0000     0.0000 </r>
       <r>    -8.3591     0.0000     0.0000 </r>
       <r>    -8.2136     0.0000     0.0000 </r>
       <r>    -8.0681     0.0000     0.0000 </r>
       <r>    -7.9225     0.0000     0.0000 </r>
       <r>    -7.7770     0.0000     0.0000 </r>
       <r>    -7.6315     0.0000     0.0000 </r>
       <r>    -7.4860     0.0000     0.0000 </r>
       <r>    -7.3405     0.0000     0.0000 </r>
       <r>    -7.1949     0.0000     0.0000 </r>
       <r>    -7.0494     0.0000     0.0000 </r>
       <r>    -6.9039     0.0000     0.0000 </r>
       <r>    -6.7584     0.0000     0.0000 </r>
       <r>    -6.6129     0.0000     0.0000 </r>
       <r>    -6.4673     0.0000     0.0000 </r>
       <r>    -6.3218     0.0000     0.0000 </r>
       <r>    -6.1763     0.0000     0.0000 </r>
       <r>    -6.0308     0.0000     0.0000 </r>
       <r>    -5.8853     0.0000     0.0000 </r>
       <r>    -5.7397     0.0000     0.0000 </r>
       <r>    -5.5942     0.0000     0.0000 </r>
       <r>    -5.4487     0.0000     0.0000 </r>
       <r>    -5.3032     0.0000     0.0000 </r>
       <r>    -5.1576     0.0000     0.0000 </r>
       <r>    -5.0121     0.0000     0.0000 </r>
       <r>    -4.8666     0.0000     0.0000 </r>
       <r>    -4.7211     0.0000     0.0000 </r>
       <r>    -4.5756     0.0000     0.0000 </r>
       <r>    -4.4300     0.0000     0.0000 </r>
       <r>    -4.2845     0.0000     0.0000 </r>
       <r>    -4.1390     0.0000     0.0000 </r>
       <r>    -3.9935     0.0000     0.0000 </r>
       <r>    -3.8480     0.0000     0.0000 </r>
       <r>    -3.7024     0.0000     0.0000 </r>
       <r>    -3.5569     0.0000     0.0000 </r>
       <r>    -3.4114     0.0000     0.0000 </r>
       <r>    -3.2659     0.0000     0.0000 </r>
       <r>    -3.1204     0.0000     0.0000 </r>
       <r>    -2.9748     0.0000     0.0000 </r>
       <r>    -2.8293     0.0000     0.0000 </r>
       <r>    -2.6838     0.0000     0.0000 </r>
       <r>    -2.5383     0.0000     0.0000 </r>
       <r>    -2.3928     0.0000     0.0000 </r>
       <r>    -2.2472     0.0000     0.0000 </r>
       <r>    -2.1017     0.0000     0.0000 </r>
       <r>    -1.9562     0.0000     0.0000 </r>
       <r>    -1.8107     0.0000     0.0000 </r>
       <r>    -1.6652     0.0000     0.0000 </r>
       <r>    -1.5196     0.0000     0.0000 </r>
       <r>    -1.3741     0.0000     0.0000 </r>
       <r>    -1.2286     0.0000     0.0000 </r>
       <r>    -1.0831     0.0000     0.0000 </r>
       <r>    -0.9376     0.0000     0.0000 </r>
       <r>    -0.7920     0.0000     0.0000 </r>
       <r>    -0.6465     0.0000     0.0000 </r>
       <r>    -0.5010     0.0000     0.0000 </r>
       <r>    -0.3555     0.0000     0.0000 </r>
       <r>    -0.2099     0.0000     0.0000 </r>
       <r>    -0.0644     0.0000     0.0000 </r>
       <r>     0.0811     0.0000     0.0000 </r>
       <r>     0.2266     0.0000     0.0000 </r>
       <r>     0.3721     0.0000     0.0000 </r>
       <r>     0.5177     0.0000     0.0000 </r>
       <r>     0.6632     0.0000     0.0000 </r>
       <r>     0.8087     0.0000     0.0000 </r>
       <r>     0.9542     0.0000     0.0000 </r>
       <r>     1.0997     0.0000     0.0000 </r>
       <r>     1.2453     0.0000     0.0000 </r>
       <r>     1.3908     0.0000     0.0000 </r>
       <r>     1.5363     0.0000     0.0000 </r>
       <r>     1.6818     0.0000     0.0000 </r>
       <r>     1.8273     0.0000     0.0000 </r>
       <r>     1.9729     0.0000     0.0000 </r>
       <r>     2.1184     0.0000     0.0000 </r>
       <r>     2.2639     0.0000     0.0000 </r>
       <r>     2.4094     0.0000     0.0000 </r>
       <r>     2.5549     0.0000     0.0000 </r>
       <r>     2.7005     0.0000     0.0000 </r>
       <r>     2.8460     0.0000     0.0000 </r>
       <r>     2.9915     0.0000     0.0000 </r>
       <r>     3.1370     0.0000     0.0000 </r>
       <r>     3.2825     0.0000     0.0000 </r>
       <r>     3.4281     0.0000     0.0000 </r>
       <r>     3.5736     0.0000     0.0000 </r>
       <r>     3.7191     0.0000     0.0000 </r>
       <r>     3.8646     0.0000     0.0000 </r>
       <r>     4.0101     0.0000     0.0000 </r>
       <r>     4.1557     0.0000     0.0000 </r>
       <r>     4.3012     0.0000     0.0000 </r>
       <r>     4.4467     0.0000     0.0000 </r>
       <r>     4.5922     0.0000     0.0000 </r>
       <r>     4.7378     0.0000     0.0000 </r>
       <r>     4.8833     0.0000     0.0000 </r>
       <r>     5.0288     0.0000     0.0000 </r>
       <r>     5.1743     0.0000     0.0000 </r>
       <r>     5.3198     0.0000     0.0000 </r>
       <r>     5.4654     0.0000     0.0000 </r>
       <r>     5.6109     0.0000     0.0000 </r>
       <r>     5.7564     0.0000     0.0000 </r>
       <r>     5.9019     0.0000     0.0000 </r>
       <r>     6.0474     0.0000     0.0000 </r>
       <r>     6.1930     0.0000     0.0000 </r>
       <r>     6.3385     0.0000     0.0000 </r>
       <r>     6.4840     0.0000     0.0000 </r>
       <r>     6.6295     0.0000     0.0000 </r>
       <r>     6.7750     0.0000     0.0000 </r>
       <r>     6.9206     0.0000     0.0000 </r>
       <r>     7.0661     0.0000     0.0000 </r>
       <r>     7.2116     0.0000     0.0000 </r>
       <r>     7.3571     0.0000     0.0000 </r>
       <r>     7.5026     0.0000     0.0000 </r>
       <r>     7.6482     0.0000     0.0000 </r>
       <r>     7.7937     0.0000     0.0000 </r>
       <r>     7.9392     0.0000     0.0000 </r>
       <r>     8.0847     0.0000     0.0000 </r>
       <r>     8.2302     0.0000     0.0000 </r>
       <r>     8.3758     0.0000     0.0000 </r>
       <r>     8.5213     0.0000     0.0000 </r>
       <r>     8.6668     0.0000     0.0000 </r>
       <r>     8.8123     0.0000     0.0000 </r>
       <r>     8.9578     0.0000     0.0000 </r>
       <r>     9.1034     0.0000     0.0000 </r>
       <r>     9.2489     0.0000     0.0000 </r>
       <r>     9.3944     0.0000     0.0000 </r>
       <r>     9.5399     0.0000     0.0000 </r>
       <r>     9.6855     0.0000     0.0000 </r>
       <r>     9.8310     0.0000     0.0000 </r>
       <r>     9.9765     0.0000     0.0000 </r>
       <r>    10.1220     0.0000     0.0000 </r>
       <r>    10.2675     0.0000     0.0000 </r>
       <r>    10.4131     0.0000     0.0000 </r>
       <r>    10.5586     0.0000     0.0000 </r>
       <r>    10.7041     0.0000     0.0000 </r>
       <r>    10.8496     0.0000     0.0000 </r>
       <r>    10.9951     0.0000     0.0000 </r>
       <r>    11.1407     0.0000     0.0000 </r>
       <r>    11.2862     0.0000     0.0000 </r>
       <r>    11.4317     0.0000     0.0000 </r>
       <r>    11.5772     0.0000     0.0000 </r>
       <r>    11.7227     0.0000     0.0000 </r>
       <r>    11.8683     0.0000     0.0000 </r>
       <r>    12.0138     0.0000     0.0000 </r>
       <r>    12.1593     0.0000     0.0000 </r>
       <r>    12.3048     0.0000     0.0000 </r>
       <r>    12.4503     0.0000     0.0000 </r>
       <r>    12.5959     0.0000     0.0000 </r>
       <r>    12.7414     0.0000     0.0000 </r>
       <r>    12.8869     0.0000     0.0000 </r>
       <r>    13.0324     0.0000     0.0000 </r>
       <r>    13.1779     0.0000     0.0000 </r>
       <r>    13.3235     0.0000     0.0000 </r>
       <r>    13.4690     0.0000     0.0000 </r>
       <r>    13.6145     0.0000     0.0000 </r>
       <r>    13.7600     0.0000     0.0000 </r>
       <r>    13.9055     0.0000     0.0000 </r>
       <r>    14.0511     0.0000     0.0000 </r>
       <r>    14.1966     0.0000     0.0000 </r>
       <r>    14.3421     0.0000     0.0000 </r>
       <r>    14.4876     0.0000     0.0000 </r>
       <r>    14.6332     0.0000     0.0000 </r>
       <r>    14.7787     0.0000     0.0000 </r>
       <r>    14.9242     0.0000     0.0000 </r>
       <r>    15.0697     0.0000     0.0000 </r>
       <r>    15.2152     0.0000     0.0000 </r>
       <r>    15.3608     0.0000     0.0000 </r>
       <r>    15.5063     0.0000     0.0000 </r>
       <r>    15.6518     0.0000     0.0000 </r>
       <r>    15.7973     0.0000     0.0000 </r>
       <r>    15.9428     0.0000     0.0000 </r>
       <r>    16.0884     0.0000     0.0000 </r>
       <r>    16.2339     0.0000     0.0000 </r>
       <r>    16.3794     0.0000     0.0000 </r>
       <r>    16.5249     0.0000     0.0000 </r>
       <r>    16.6704     0.0000     0.0000 </r>
       <r>    16.8160     0.0000     0.0000 </r>
       <r>    16.9615     0.0000     0.0000 </r>
       <r>    17.1070     0.0000     0.0000 </r>
       <r>    17.2525     0.0000     0.0000 </r>
       <r>    17.3980     0.0000     0.0000 </r>
       <r>    17.5436     0.0000     0.0000 </r>
       <r>    17.6891     0.0000     0.0000 </r>
       <r>    17.8346     0.0000     0.0000 </r>
       <r>    17.9801     0.0000     0.0000 </r>
       <r>    18.1256     0.0000     0.0000 </r>
       <r>    18.2712     0.0000     0.0000 </r>
       <r>    18.4167     0.0000     0.0000 </r>
       <r>    18.5622     0.0000     0.0000 </r>
       <r>    18.7077     0.0000     0.0000 </r>
       <r>    18.8532     0.0000     0.0000 </r>
       <r>    18.9988     0.0000     0.0000 </r>
       <r>    19.1443     0.0000     0.0000 </r>
       <r>    19.2898     0.0000     0.0000 </r>
       <r>    19.4353     0.0000     0.0000 </r>
       <r>    19.5809     0.0000     0.0000 </r>
       <r>    19.7264     0.0000     0.0000 </r>
       <r>    19.8719     0.0000     0.0000 </r>
       <r>    20.0174     0.0000     0.0000 </r>
       <r>    20.1629     0.0000     0.0000 </r>
       <r>    20.3085     0.0000     0.0000 </r>
       <r>    20.4540     0.0000     0.0000 </r>
       <r>    20.5995     0.0000     0.0000 </r>
       <r>    20.7450     0.0000     0.0000 </r>
       <r>    20.8905     0.0000     0.0000 </r>
       <r>    21.0361     0.0000     0.0000 </r>
       <r>    21.1816     0.0000     0.0000 </r>
       <r>    21.3271     0.0000     0.0000 </r>
       <r>    21.4726     0.0000     0.0000 </r>
       <r>    21.6181     0.0000     0.0000 </r>
       <r>    21.7637     0.0000     0.0000 </r>
       <r>    21.9092     0.0000     0.0000 </r>
       <r>    22.0547     0.0000     0.0000 </r>
       <r>    22.2002     0.0000     0.0000 </r>
       <r>    22.3457     0.0000     0.0000 </r>
       <r>    22.4913     0.0000     0.0000 </r>
       <r>    22.6368     0.0000     0.0000 </r>
       <r>    22.7823     0.0000     0.0000 </r>
       <r>    22.9278     0.0000     0.0000 </r>
       <r>    23.0733     0.0000     0.0000 </r>
       <r>    23.2189     0.0000     0.0000 </r>
       <r>    23.3644     0.0000     0.0000 </r>
       <r>    23.5099     0.0000     0.0000 </r>
       <r>    23.6554     0.0000     0.0000 </r>
       <r>    23.8009     0.0000     0.0000 </r>
       <r>    23.9465     0.0000     0.0000 </r>
       <r>    24.0920     0.0000     0.0000 </r>
       <r>    24.2375     0.0000     0.0000 </r>
       <r>    24.3830     0.0000     0.0000 </r>
       <r>    24.5285     0.0000     0.0000 </r>
       <r>    24.6741     0.0000     0.0000 </r>
       <r>    24.8196     0.0000     0.0000 </r>
       <r>    24.9651     0.0000     0.0000 </r>
       <r>    25.1106     0.0000     0.0000 </r>
       <r>    25.2562     0.0000     0.0000 </r>
       <r>    25.4017     0.0000     0.0000 </r>
       <r>    25.5472     0.0000     0.0000 </r>
       <r>    25.6927     0.0000     0.0000 </r>
       <r>    25.8382     0.0000     0.0000 </r>
       <r>    25.9838     0.0000     0.0000 </r>
       <r>    26.1293     0.0000     0.0000 </r>
       <r>    26.2748     0.0000     0.0000 </r>
       <r>    26.4203     0.0000     0.0000 </r>
       <r>    26.5658     0.0000     0.0000 </r>
       <r>    26.7114     0.0000     0.0000 </r>
       <r>    26.8569     0.0000     0.0000 </r>
       <r>    27.0024     0.0000     0.0000 </r>
       <r>    27.1479     0.0000     0.0000 </r>
       <r>    27.2934     0.0000     0.0000 </r>
       <r>    27.4390     0.0000     0.0000 </r>
       <r>    27.5845     0.0000     0.0000 </r>
       <r>    27.7300     0.0000     0.0000 </r>
       <r>    27.8755     0.0000     0.0000 </r>
       <r>    28.0210     0.0000     0.0000 </r>
       <r>    28.1666     0.0000     0.0000 </r>
       <r>    28.3121     0.0000     0.0000 </r>
       <r>    28.4576     0.0000     0.0000 </r>
       <r>    28.6031     0.0000     0.0000 </r>
      </set>
     </set>
    </array>
   </total>
  </dos>
 </calculation>
 <structure name="finalpos" >
  <crystal>
   <varray name="basis" >
    <v>       0.00000000       3.28431199       3.28431199 </v>
    <v>       3.28431199       0.00000000       3.28431199 </v>
    <v>       3.28431199       3.28431199       0.00000000 </v>
   </varray>
   <i name="volume">     70.85381075 </i>
   <varray name="rec_basis" >
    <v>      -0.15223889       0.15223889       0.15223889 </v>
    <v>       0.15223889      -0.15223889       0.15223889 </v>
    <v>       0.15223889       0.15223889      -0.15223889 </v>
   </varray>
  </crystal>
  <varray name="positions" >
   <v>       0.00000000       0.00000000       0.00000000 </v>
   <v>       0.50000000       0.50000000       0.50000000 </v>
  </varray>
 </structure>
</modeling>
