 vasp.5.4.4.18Apr17-6-g9f103f2a35 (build Mar 20 2018 18:01:20) complex           
 executed on             LinuxGNU date 2020.04.24  12:02:14
 running on    8 total cores
 distrk:  each k-point on    8 cores,    1 groups
 distr:  one band on NCORES_PER_BAND=   2 cores,    4 groups


--------------------------------------------------------------------------------------------------------


 INCAR:
 POTCAR:    PAW_PBE Sn_d 06Sep2000                
 POTCAR:    PAW_PBE Se 06Sep2000                  
 POTCAR:    PAW_PBE Sn_d 06Sep2000                
   VRHFIN =Sn: s2p2                                                             
   LEXCH  = PE                                                                  
   EATOM  =  1893.1092 eV,  139.1396 Ry                                         
                                                                                
   TITEL  = PAW_PBE Sn_d 06Sep2000                                              
   LULTRA =        F    use ultrasoft PP ?                                      
   IUNSCR =        1    unscreen: 0-lin 1-nonlin 2-no                           
   RPACOR =    2.300    partial core radius                                     
   POMASS =  118.710; ZVAL   =   14.000    mass and valenz                      
   RCORE  =    2.500    outmost cutoff radius                                   
   RWIGS  =    2.960; RWIGS  =    1.566    wigner-seitz radius (au A)           
   ENMAX  =  241.083; ENMIN  =  180.812 eV                                      
   ICORE  =        3    local potential                                         
   LCOR   =        T    correct aug charges                                     
   LPAW   =        T    paw PP                                                  
   EAUG   =  439.825                                                            
   DEXC   =    0.000                                                            
   RMAX   =    2.560    core radius for proj-oper                               
   RAUG   =    1.300    factor for augmentation sphere                          
   RDEP   =    2.659    radius for radial grids                                 
   RDEPT  =    2.046    core radius for aug-charge                              
                                                                                
   Atomic configuration                                                         
   12 entries                                                                   
     n  l   j            E        occ.                                          
     1  0  0.50    -29007.2859   2.0000                                         
     2  0  0.50     -4378.8056   2.0000                                         
     2  1  1.50     -3930.4293   6.0000                                         
     3  0  0.50      -845.0264   2.0000                                         
     3  1  1.50      -698.5725   6.0000                                         
     3  2  2.50      -473.2839  10.0000                                         
     4  0  0.50      -133.9036   2.0000                                         
     4  1  1.50       -89.6752   6.0000                                         
     4  2  2.50       -25.8375  10.0000                                         
     5  0  0.50       -10.5484   2.0000                                         
     5  1  0.50        -3.6940   2.0000                                         
     4  3  2.50        -2.7416   0.0000                                         
   Description                                                                  
     l       E           TYP  RCUT    TYP  RCUT                                 
     2    -25.8374624     23  2.500                                             
     2     -5.4423304     23  2.500                                             
     0    -10.5483727     23  2.500                                             
     0     13.6058260     23  2.500                                             
     1     -3.6939829     23  2.500                                             
     1      1.9821976     23  2.500                                             
     3     -1.3605826      7  2.500                                             
  local pseudopotential read in
  partial core-charges read in
  partial kinetic energy density read in
  atomic valenz-charges read in
  non local Contribution for L=           2  read in
    real space projection operators read in
  non local Contribution for L=           2  read in
    real space projection operators read in
  non local Contribution for L=           0  read in
    real space projection operators read in
  non local Contribution for L=           0  read in
    real space projection operators read in
  non local Contribution for L=           1  read in
    real space projection operators read in
  non local Contribution for L=           1  read in
    real space projection operators read in
    PAW grid and wavefunctions read in

   number of l-projection  operators is LMAX  =           6
   number of lm-projection operators is LMMAX =          18

 POTCAR:    PAW_PBE Se 06Sep2000                  
   VRHFIN =Se: s2p4                                                             
   LEXCH  = PE                                                                  
   EATOM  =   257.1286 eV,   18.8984 Ry                                         
                                                                                
   TITEL  = PAW_PBE Se 06Sep2000                                                
   LULTRA =        F    use ultrasoft PP ?                                      
   IUNSCR =        1    unscreen: 0-lin 1-nonlin 2-no                           
   RPACOR =    1.900    partial core radius                                     
   POMASS =   78.960; ZVAL   =    6.000    mass and valenz                      
   RCORE  =    2.100    outmost cutoff radius                                   
   RWIGS  =    2.200; RWIGS  =    1.164    wigner-seitz radius (au A)           
   ENMAX  =  211.555; ENMIN  =  158.666 eV                                      
   ICORE  =        3    local potential                                         
   LCOR   =        T    correct aug charges                                     
   LPAW   =        T    paw PP                                                  
   EAUG   =  446.842                                                            
   DEXC   =    0.000                                                            
   RMAX   =    2.147    core radius for proj-oper                               
   RAUG   =    1.300    factor for augmentation sphere                          
   RDEP   =    2.177    radius for radial grids                                 
   RDEPT  =    1.928    core radius for aug-charge                              
                                                                                
   Atomic configuration                                                         
   10 entries                                                                   
     n  l   j            E        occ.                                          
     1  0  0.50    -12503.4787   2.0000                                         
     2  0  0.50     -1606.9547   2.0000                                         
     2  1  1.50     -1413.3140   6.0000                                         
     3  0  0.50      -213.4885   2.0000                                         
     3  1  1.50      -152.9538   6.0000                                         
     3  2  2.50       -53.1221  10.0000                                         
     4  0  0.50       -17.2865   2.0000                                         
     4  1  0.50        -6.5110   4.0000                                         
     4  2  2.50        -6.8029   0.0000                                         
     4  3  2.50        -6.8029   0.0000                                         
   Description                                                                  
     l       E           TYP  RCUT    TYP  RCUT                                 
     0    -17.2865377     23  2.100                                             
     0    -15.3094411     23  2.100                                             
     1     -6.5110275     23  2.100                                             
     1     -0.0695192     23  2.100                                             
     2     -6.8029130     23  2.100                                             
     3     -1.3605826      7  2.100                                             
  local pseudopotential read in
  partial core-charges read in
  partial kinetic energy density read in
  atomic valenz-charges read in
  non local Contribution for L=           0  read in
    real space projection operators read in
  non local Contribution for L=           0  read in
    real space projection operators read in
  non local Contribution for L=           1  read in
    real space projection operators read in
  non local Contribution for L=           1  read in
    real space projection operators read in
  non local Contribution for L=           2  read in
    real space projection operators read in
    PAW grid and wavefunctions read in

   number of l-projection  operators is LMAX  =           5
   number of lm-projection operators is LMMAX =          13


 ----------------------------------------------------------------------------- 
|                                                                             |
|  ADVICE TO THIS USER RUNNING 'VASP/VAMP'   (HEAR YOUR MASTER'S VOICE ...):  |
|                                                                             |
|      You have a (more or less) 'small supercell' and for smaller cells      |
|      it is recommended  to use the reciprocal-space projection scheme!      |
|      The real space optimization is not  efficient for small cells and it   |
|      is also less accurate ...                                              |
|      Therefore set LREAL=.FALSE. in the  INCAR file                         |
|                                                                             |
 ----------------------------------------------------------------------------- 

 Optimization of the real space projectors (new method)

 maximal supplied QI-value         = 15.12
 optimisation between [QCUT,QGAM] = [ 12.55, 25.10] = [ 44.09,176.36] Ry 
 Optimized for a Real-space Cutoff    1.35 Angstroem

   l    n(q)    QCUT    max X(q) W(low)/X(q) W(high)/X(q)  e(spline) 
   2      9    12.548     5.880    0.25E-04    0.46E-04    0.71E-07
   2      9    12.548     7.804    0.23E-03    0.16E-03    0.35E-06
   0     10    12.548    20.557    0.17E-03    0.79E-04    0.42E-06
   0     10    12.548     9.400    0.21E-03    0.99E-04    0.53E-06
   1     10    12.548    94.178    0.17E-03    0.35E-03    0.17E-06
   1     10    12.548    56.401    0.16E-03    0.34E-03    0.16E-06
 Optimization of the real space projectors (new method)

 maximal supplied QI-value         = 17.95
 optimisation between [QCUT,QGAM] = [ 12.39, 24.95] = [ 42.97,174.37] Ry 
 Optimized for a Real-space Cutoff    1.20 Angstroem

   l    n(q)    QCUT    max X(q) W(low)/X(q) W(high)/X(q)  e(spline) 
   0      9    12.387   133.320    0.20E-03    0.14E-03    0.53E-07
   0      9    12.387   111.601    0.21E-03    0.15E-03    0.56E-07
   1      8    12.387    47.222    0.19E-03    0.11E-03    0.16E-06
   1      8    12.387    33.775    0.18E-03    0.11E-03    0.16E-06
   2      8    12.387     3.720    0.21E-03    0.15E-03    0.43E-07
  PAW_PBE Sn_d 06Sep2000                :
 energy of atom  1       EATOM=-1893.1092
 kinetic energy error for atom=    0.0010 (will be added to EATOM!!)
  PAW_PBE Se 06Sep2000                  :
 energy of atom  2       EATOM= -257.1286
 kinetic energy error for atom=    0.0006 (will be added to EATOM!!)


 POSCAR: Sn4 Se4                                 
  positions in direct lattice
  No initial velocities read in
 exchange correlation table for  LEXCH =        8
   RHO(1)=    0.500       N(1)  =     2000
   RHO(2)=  100.500       N(2)  =     4000



--------------------------------------------------------------------------------------------------------


 ion  position               nearest neighbor table
   1  0.250  0.112  0.117-   7 2.79   5 2.80   5 2.80   2 3.56   2 3.56
   2  0.750  0.888  0.883-   8 2.79   6 2.80   6 2.80   1 3.56   1 3.56
   3  0.750  0.612  0.383-   5 2.79   7 2.80   7 2.80   4 3.56   4 3.56
   4  0.250  0.388  0.617-   6 2.79   8 2.80   8 2.80   3 3.56   3 3.56
   5  0.750  0.519  0.145-   3 2.79   1 2.80   1 2.80
   6  0.250  0.481  0.855-   4 2.79   2 2.80   2 2.80
   7  0.250  0.019  0.355-   1 2.79   3 2.80   3 2.80
   8  0.750  0.981  0.645-   2 2.79   4 2.80   4 2.80

  LATTYP: Found a simple orthorhombic cell.
 ALAT       =     4.1684222500
 B/A-ratio  =     1.0890621410
 C/A-ratio  =     2.7752706986
  
  Lattice vectors:
  
 A1 = (   4.1684222500,   0.0000000000,   0.0000000000)
 A2 = (   0.0000000000,   4.5396708600,   0.0000000000)
 A3 = (   0.0000000000,   0.0000000000,  11.5685001300)


Analysis of symmetry for initial positions (statically):
=====================================================================
 Subroutine PRICEL returns:
 Original cell was already a primitive cell.
 

 Routine SETGRP: Setting up the symmetry group for a 
 simple orthorhombic supercell.


 Subroutine GETGRP returns: Found  8 space group operations
 (whereof  2 operations were pure point group operations)
 out of a pool of  8 trial point group operations.


The static configuration has the point symmetry S_2 .
 The point group associated with its full space group is D_2h.


Analysis of symmetry for dynamics (positions and initial velocities):
=====================================================================
 Subroutine PRICEL returns:
 Original cell was already a primitive cell.
 

 Routine SETGRP: Setting up the symmetry group for a 
 simple orthorhombic supercell.


 Subroutine GETGRP returns: Found  8 space group operations
 (whereof  2 operations were pure point group operations)
 out of a pool of  8 trial point group operations.


The dynamic configuration has the point symmetry S_2 .
 The point group associated with its full space group is D_2h.


 Subroutine INISYM returns: Found  8 space group operations
 (whereof  2 operations are pure point group operations),
 and found     1 'primitive' translations



 KPOINTS: Non SCF run along symmetry lines        
  k-points in reciprocal lattice
Space group operators:
 irot       det(A)        alpha          n_x          n_y          n_z        tau_x        tau_y        tau_z
    1     1.000000     0.000000     1.000000     0.000000     0.000000     0.000000     0.000000     0.000000
    2    -1.000000     0.000000     1.000000     0.000000     0.000000     0.000000     0.000000     0.000000
    3     1.000000   180.000000    -0.000000    -0.000000     1.000000     0.500000     0.500000     0.500000
    4    -1.000000   180.000000    -0.000000    -0.000000     1.000000     0.500000     0.500000     0.500000
    5     1.000000   180.000000     0.000000     1.000000     0.000000     0.000000     0.500000     0.500000
    6    -1.000000   180.000000     0.000000     1.000000     0.000000     0.000000     0.500000     0.500000
    7     1.000000   180.000000     1.000000    -0.000000     0.000000     0.500000     0.000000     0.000000
    8    -1.000000   180.000000     1.000000    -0.000000     0.000000     0.500000     0.000000     0.000000


--------------------------------------------------------------------------------------------------------




 Dimension of arrays:
   k-points           NKPTS =    224   k-points in BZ     NKDIM =    224   number of bands    NBANDS=     60
   number of dos      NEDOS =    301   number of ions     NIONS =      8
   non local maximal  LDIM  =      6   non local SUM 2l+1 LMDIM =     18
   total plane-waves  NPLWV = 124416
   max r-space proj   IRMAX =   5854   max aug-charges    IRDMAX= 203220
   dimension x,y,z NGX =    36 NGY =   36 NGZ =   96
   dimension x,y,z NGXF=    72 NGYF=   72 NGZF=  192
   support grid    NGXF=   144 NGYF=  144 NGZF=  384
   ions per type =               4   4
   NGX,Y,Z   is equivalent  to a cutoff of  14.36, 13.18, 13.80 a.u.
   NGXF,Y,Z  is equivalent  to a cutoff of  28.72, 26.37, 27.59 a.u.

 SYSTEM =  SnSe                                    
 POSCAR =  Sn4 Se4                                 

 Startparameter for this run:
   NWRITE =      2    write-flag & timer
   PREC   = accura    normal or accurate (medium, high low for compatibility)
   ISTART =      0    job   : 0-new  1-cont  2-samecut
   ICHARG =     11    charge: 1-file 2-atom 10-const
   ISPIN  =      1    spin polarized calculation?
   LNONCOLLINEAR =      F non collinear calculations
   LSORBIT =      F    spin-orbit coupling
   INIWAV =      1    electr: 0-lowe 1-rand  2-diag
   LASPH  =      F    aspherical Exc in radial PAW
   METAGGA=      F    non-selfconsistent MetaGGA calc.

 Electronic Relaxation 1
   ENCUT  =  600.0 eV  44.10 Ry    6.64 a.u.   8.33  9.07 23.11*2*pi/ulx,y,z
   ENINI  =  600.0     initial cutoff
   ENAUG  =  446.8 eV  augmentation charge cutoff
   NELM   =     60;   NELMIN=  2; NELMDL=  0     # of ELM steps 
   EDIFF  = 0.1E-06   stopping-criterion for ELM
   LREAL  =      T    real-space projection
   NLSPLINE    = F    spline interpolate recip. space projectors
   LCOMPAT=      F    compatible to vasp.4.4
   GGA_COMPAT  = T    GGA compatible to vasp.4.4-vasp.4.6
   LMAXPAW     = -100 max onsite density
   LMAXMIX     =    4 max onsite mixed and CHGCAR
   VOSKOWN=      0    Vosko Wilk Nusair interpolation
   ROPT   =   -0.00025  -0.00025
 Ionic relaxation
   EDIFFG = 0.1E-05   stopping-criterion for IOM
   NSW    =      0    number of steps for IOM
   NBLOCK =      1;   KBLOCK =      1    inner block; outer block 
   IBRION =     -1    ionic relax: 0-MD 1-quasi-New 2-CG
   NFREE  =      0    steps in history (QN), initial steepest desc. (CG)
   ISIF   =      2    stress and relaxation
   IWAVPR =     10    prediction:  0-non 1-charg 2-wave 3-comb
   ISYM   =      2    0-nonsym 1-usesym 2-fastsym
   LCORR  =      T    Harris-Foulkes like correction to forces

   POTIM  = 0.5000    time-step for ionic-motion
   TEIN   =    0.0    initial temperature
   TEBEG  =    0.0;   TEEND  =   0.0 temperature during run
   SMASS  =  -3.00    Nose mass-parameter (am)
   estimated Nose-frequenzy (Omega)   =  0.10E-29 period in steps =****** mass=  -0.397E-27a.u.
   SCALEE = 1.0000    scale energy and forces
   NPACO  =    256;   APACO  = 16.0  distance and # of slots for P.C.
   PSTRESS=    0.0 pullay stress

  Mass of Ions in am
   POMASS = 118.71 78.96
  Ionic Valenz
   ZVAL   =  14.00  6.00
  Atomic Wigner-Seitz radii
   RWIGS  =  -1.00 -1.00
  virtual crystal weights 
   VCA    =   1.00  1.00
   NELECT =      80.0000    total number of electrons
   NUPDOWN=      -1.0000    fix difference up-down

 DOS related values:
   EMIN   =  10.00;   EMAX   =-10.00  energy-range for DOS
   EFERMI =   0.00
   ISMEAR =     0;   SIGMA  =   0.05  broadening in eV -4-tet -1-fermi 0-gaus

 Electronic relaxation 2 (details)
   IALGO  =     58    algorithm
   LDIAG  =      T    sub-space diagonalisation (order eigenvalues)
   LSUBROT=      F    optimize rotation matrix (better conditioning)
   TURBO    =      0    0=normal 1=particle mesh
   IRESTART =      0    0=no restart 2=restart with 2 vectors
   NREBOOT  =      0    no. of reboots
   NMIN     =      0    reboot dimension
   EREF     =   0.00    reference energy to select bands
   IMIX   =      4    mixing-type and parameters
     AMIX     =   0.40;   BMIX     =  1.00
     AMIX_MAG =   1.60;   BMIX_MAG =  1.00
     AMIN     =   0.10
     WC   =   100.;   INIMIX=   1;  MIXPRE=   1;  MAXMIX= -45

 Intra band minimization:
   WEIMIN = 0.0000     energy-eigenvalue tresh-hold
   EBREAK =  0.42E-09  absolut break condition
   DEPER  =   0.30     relativ break condition  

   TIME   =   0.40     timestep for ELM

  volume/ion in A,a.u.               =      27.36       184.66
  Fermi-wavevector in a.u.,A,eV,Ry     =   1.170435  2.211801 18.638851  1.369917
  Thomas-Fermi vector in A             =   2.306893

 Write flags
   LWAVE        =      T    write WAVECAR
   LDOWNSAMPLE  =      F    k-point downsampling of WAVECAR
   LCHARG       =      T    write CHGCAR
   LVTOT        =      F    write LOCPOT, total local potential
   LVHAR        =      F    write LOCPOT, Hartree potential only
   LELF         =      F    write electronic localiz. function (ELF)
   LORBIT       =      0    0 simple, 1 ext, 2 COOP (PROOUT), +10 PAW based schemes


 Dipole corrections
   LMONO  =      F    monopole corrections only (constant potential shift)
   LDIPOL =      F    correct potential (dipole corrections)
   IDIPOL =      0    1-x, 2-y, 3-z, 4-all directions 
   EPSILON=  1.0000000 bulk dielectric constant

 Exchange correlation treatment:
   GGA     =    --    GGA type
   LEXCH   =     8    internal setting for exchange type
   VOSKOWN=      0    Vosko Wilk Nusair interpolation
   LHFCALC =     F    Hartree Fock is set to
   LHFONE  =     F    Hartree Fock one center treatment
   AEXX    =    0.0000 exact exchange contribution

 Linear response parameters
   LEPSILON=     F    determine dielectric tensor
   LRPA    =     F    only Hartree local field effects (RPA)
   LNABLA  =     F    use nabla operator in PAW spheres
   LVEL    =     F    velocity operator in full k-point grid
   LINTERFAST=   F  fast interpolation
   KINTER  =     0    interpolate to denser k-point grid
   CSHIFT  =0.1000    complex shift for real part using Kramers Kronig
   OMEGAMAX=  -1.0    maximum frequency
   DEG_THRESHOLD= 0.2000000E-02 threshold for treating states as degnerate
   RTIME   =   -0.100 relaxation time in fs
  (WPLASMAI=    0.000 imaginary part of plasma frequency in eV, 0.658/RTIME)
   DFIELD  = 0.0000000 0.0000000 0.0000000 field for delta impulse in time

 Orbital magnetization related:
   ORBITALMAG=     F  switch on orbital magnetization
   LCHIMAG   =     F  perturbation theory with respect to B field
   DQ        =  0.001000  dq finite difference perturbation B field
   LLRAUG    =     F  two centre corrections for induced B field



--------------------------------------------------------------------------------------------------------


 Static calculation
 charge density and potential remain constant during run
 non-spin polarized calculation
 Conjugate gradient for all bands (Freysoldt, et al. PRB 79, 241103 (2009))
 preconditioned conjugated gradient   charged. constant during bandupdate  
 perform sub-space diagonalisation
    before iterative eigenvector-optimisation
 no mixing
 using additional bands           20
 real space projection scheme for non local part
 use partial core corrections
 calculate Harris-corrections to forces   (improved forces if not selfconsistent)
 use gradient corrections 
 WARNING: stress and forces are not correct
  (second derivative of E(xc) not defined)
 use of overlap-Matrix (Vanderbilt PP)
 Gauss-broadening in eV      SIGMA  =   0.05


--------------------------------------------------------------------------------------------------------


  energy-cutoff  :      600.00
  volume of cell :      218.91
      direct lattice vectors                 reciprocal lattice vectors
     4.168422250  0.000000000  0.000000000     0.239898921 -0.000000000  0.000000000
     0.000000000  4.539670860  0.000000000     0.000000000  0.220280287  0.000000000
     0.000000000  0.000000000 11.568500130    -0.000000000 -0.000000000  0.086441629

  length of vectors
     4.168422250  4.539670860 11.568500130     0.239898921  0.220280287  0.086441629



 k-points in units of 2pi/SCALE and weight: Non SCF run along symmetry lines        
   0.00000000  0.00000000  0.00000000       0.004
   0.00521519 -0.00000000  0.00000000       0.004
   0.01043039 -0.00000000  0.00000000       0.004
   0.01564558 -0.00000000  0.00000000       0.004
   0.02086078 -0.00000000  0.00000000       0.004
   0.02607597 -0.00000000  0.00000000       0.004
   0.03129116 -0.00000000  0.00000000       0.004
   0.03650636 -0.00000000  0.00000000       0.004
   0.04172155 -0.00000000  0.00000000       0.004
   0.04693675 -0.00000000  0.00000000       0.004
   0.05215194 -0.00000000  0.00000000       0.004
   0.05736713 -0.00000000  0.00000000       0.004
   0.06258233 -0.00000000  0.00000000       0.004
   0.06779752 -0.00000000  0.00000000       0.004
   0.07301272 -0.00000000  0.00000000       0.004
   0.07822791 -0.00000000  0.00000000       0.004
   0.08344310 -0.00000000  0.00000000       0.004
   0.08865830 -0.00000000  0.00000000       0.004
   0.09387349 -0.00000000  0.00000000       0.004
   0.09908868 -0.00000000  0.00000000       0.004
   0.10430388 -0.00000000  0.00000000       0.004
   0.10951907 -0.00000000  0.00000000       0.004
   0.11473427 -0.00000000  0.00000000       0.004
   0.11994946 -0.00000000  0.00000000       0.004
   0.11994946 -0.00000000  0.00000000       0.004
   0.11994946  0.00524477  0.00000000       0.004
   0.11994946  0.01048954  0.00000000       0.004
   0.11994946  0.01573431  0.00000000       0.004
   0.11994946  0.02097907  0.00000000       0.004
   0.11994946  0.02622384  0.00000000       0.004
   0.11994946  0.03146861  0.00000000       0.004
   0.11994946  0.03671338  0.00000000       0.004
   0.11994946  0.04195815  0.00000000       0.004
   0.11994946  0.04720292  0.00000000       0.004
   0.11994946  0.05244769  0.00000000       0.004
   0.11994946  0.05769246  0.00000000       0.004
   0.11994946  0.06293722  0.00000000       0.004
   0.11994946  0.06818199  0.00000000       0.004
   0.11994946  0.07342676  0.00000000       0.004
   0.11994946  0.07867153  0.00000000       0.004
   0.11994946  0.08391630  0.00000000       0.004
   0.11994946  0.08916107  0.00000000       0.004
   0.11994946  0.09440584  0.00000000       0.004
   0.11994946  0.09965061  0.00000000       0.004
   0.11994946  0.10489537  0.00000000       0.004
   0.11994946  0.11014014  0.00000000       0.004
   0.11994946  0.11014014  0.00000000       0.004
   0.11473427  0.11014014  0.00000000       0.004
   0.10951907  0.11014014  0.00000000       0.004
   0.10430388  0.11014014  0.00000000       0.004
   0.09908868  0.11014014  0.00000000       0.004
   0.09387349  0.11014014  0.00000000       0.004
   0.08865830  0.11014014  0.00000000       0.004
   0.08344310  0.11014014  0.00000000       0.004
   0.07822791  0.11014014  0.00000000       0.004
   0.07301272  0.11014014  0.00000000       0.004
   0.06779752  0.11014014  0.00000000       0.004
   0.06258233  0.11014014  0.00000000       0.004
   0.05736713  0.11014014  0.00000000       0.004
   0.05215194  0.11014014  0.00000000       0.004
   0.04693675  0.11014014  0.00000000       0.004
   0.04172155  0.11014014  0.00000000       0.004
   0.03650636  0.11014014  0.00000000       0.004
   0.03129116  0.11014014  0.00000000       0.004
   0.02607597  0.11014014  0.00000000       0.004
   0.02086078  0.11014014  0.00000000       0.004
   0.01564558  0.11014014  0.00000000       0.004
   0.01043039  0.11014014  0.00000000       0.004
   0.00521519  0.11014014  0.00000000       0.004
   0.00000000  0.11014014  0.00000000       0.004
   0.00000000  0.11014014  0.00000000       0.004
   0.00000000  0.10489537  0.00000000       0.004
   0.00000000  0.09965061  0.00000000       0.004
   0.00000000  0.09440584  0.00000000       0.004
   0.00000000  0.08916107  0.00000000       0.004
   0.00000000  0.08391630  0.00000000       0.004
   0.00000000  0.07867153  0.00000000       0.004
   0.00000000  0.07342676  0.00000000       0.004
   0.00000000  0.06818199  0.00000000       0.004
   0.00000000  0.06293722  0.00000000       0.004
   0.00000000  0.05769246  0.00000000       0.004
   0.00000000  0.05244769  0.00000000       0.004
   0.00000000  0.04720292  0.00000000       0.004
   0.00000000  0.04195815  0.00000000       0.004
   0.00000000  0.03671338  0.00000000       0.004
   0.00000000  0.03146861  0.00000000       0.004
   0.00000000  0.02622384  0.00000000       0.004
   0.00000000  0.02097907  0.00000000       0.004
   0.00000000  0.01573431  0.00000000       0.004
   0.00000000  0.01048954  0.00000000       0.004
   0.00000000  0.00524477  0.00000000       0.004
   0.00000000  0.00000000  0.00000000       0.004
   0.00000000  0.00000000  0.00000000       0.004
  -0.00000000 -0.00000000  0.00480231       0.004
  -0.00000000 -0.00000000  0.00960463       0.004
  -0.00000000 -0.00000000  0.01440694       0.004
  -0.00000000 -0.00000000  0.01920925       0.004
  -0.00000000 -0.00000000  0.02401156       0.004
  -0.00000000 -0.00000000  0.02881388       0.004
  -0.00000000 -0.00000000  0.03361619       0.004
  -0.00000000 -0.00000000  0.03841850       0.004
  -0.00000000 -0.00000000  0.04322081       0.004
  -0.00000000 -0.00000000  0.04322081       0.004
   0.00521519 -0.00000000  0.04322081       0.004
   0.01043039 -0.00000000  0.04322081       0.004
   0.01564558 -0.00000000  0.04322081       0.004
   0.02086078 -0.00000000  0.04322081       0.004
   0.02607597 -0.00000000  0.04322081       0.004
   0.03129116 -0.00000000  0.04322081       0.004
   0.03650636 -0.00000000  0.04322081       0.004
   0.04172155 -0.00000000  0.04322081       0.004
   0.04693675 -0.00000000  0.04322081       0.004
   0.05215194 -0.00000000  0.04322081       0.004
   0.05736713 -0.00000000  0.04322081       0.004
   0.06258233 -0.00000000  0.04322081       0.004
   0.06779752 -0.00000000  0.04322081       0.004
   0.07301272 -0.00000000  0.04322081       0.004
   0.07822791 -0.00000000  0.04322081       0.004
   0.08344310 -0.00000000  0.04322081       0.004
   0.08865830 -0.00000000  0.04322081       0.004
   0.09387349 -0.00000000  0.04322081       0.004
   0.09908868 -0.00000000  0.04322081       0.004
   0.10430388 -0.00000000  0.04322081       0.004
   0.10951907 -0.00000000  0.04322081       0.004
   0.11473427 -0.00000000  0.04322081       0.004
   0.11994946 -0.00000000  0.04322081       0.004
   0.11994946 -0.00000000  0.04322081       0.004
   0.11994946  0.00524477  0.04322081       0.004
   0.11994946  0.01048954  0.04322081       0.004
   0.11994946  0.01573431  0.04322081       0.004
   0.11994946  0.02097907  0.04322081       0.004
   0.11994946  0.02622384  0.04322081       0.004
   0.11994946  0.03146861  0.04322081       0.004
   0.11994946  0.03671338  0.04322081       0.004
   0.11994946  0.04195815  0.04322081       0.004
   0.11994946  0.04720292  0.04322081       0.004
   0.11994946  0.05244769  0.04322081       0.004
   0.11994946  0.05769246  0.04322081       0.004
   0.11994946  0.06293722  0.04322081       0.004
   0.11994946  0.06818199  0.04322081       0.004
   0.11994946  0.07342676  0.04322081       0.004
   0.11994946  0.07867153  0.04322081       0.004
   0.11994946  0.08391630  0.04322081       0.004
   0.11994946  0.08916107  0.04322081       0.004
   0.11994946  0.09440584  0.04322081       0.004
   0.11994946  0.09965061  0.04322081       0.004
   0.11994946  0.10489537  0.04322081       0.004
   0.11994946  0.11014014  0.04322081       0.004
   0.11994946  0.11014014  0.04322081       0.004
   0.11473427  0.11014014  0.04322081       0.004
   0.10951907  0.11014014  0.04322081       0.004
   0.10430388  0.11014014  0.04322081       0.004
   0.09908868  0.11014014  0.04322081       0.004
   0.09387349  0.11014014  0.04322081       0.004
   0.08865830  0.11014014  0.04322081       0.004
   0.08344310  0.11014014  0.04322081       0.004
   0.07822791  0.11014014  0.04322081       0.004
   0.07301272  0.11014014  0.04322081       0.004
   0.06779752  0.11014014  0.04322081       0.004
   0.06258233  0.11014014  0.04322081       0.004
   0.05736713  0.11014014  0.04322081       0.004
   0.05215194  0.11014014  0.04322081       0.004
   0.04693675  0.11014014  0.04322081       0.004
   0.04172155  0.11014014  0.04322081       0.004
   0.03650636  0.11014014  0.04322081       0.004
   0.03129116  0.11014014  0.04322081       0.004
   0.02607597  0.11014014  0.04322081       0.004
   0.02086078  0.11014014  0.04322081       0.004
   0.01564558  0.11014014  0.04322081       0.004
   0.01043039  0.11014014  0.04322081       0.004
   0.00521519  0.11014014  0.04322081       0.004
  -0.00000000  0.11014014  0.04322081       0.004
  -0.00000000  0.11014014  0.04322081       0.004
  -0.00000000  0.10489537  0.04322081       0.004
  -0.00000000  0.09965061  0.04322081       0.004
  -0.00000000  0.09440584  0.04322081       0.004
  -0.00000000  0.08916107  0.04322081       0.004
  -0.00000000  0.08391630  0.04322081       0.004
  -0.00000000  0.07867153  0.04322081       0.004
  -0.00000000  0.07342676  0.04322081       0.004
  -0.00000000  0.06818199  0.04322081       0.004
  -0.00000000  0.06293722  0.04322081       0.004
  -0.00000000  0.05769246  0.04322081       0.004
  -0.00000000  0.05244769  0.04322081       0.004
  -0.00000000  0.04720292  0.04322081       0.004
  -0.00000000  0.04195815  0.04322081       0.004
  -0.00000000  0.03671338  0.04322081       0.004
  -0.00000000  0.03146861  0.04322081       0.004
  -0.00000000  0.02622384  0.04322081       0.004
  -0.00000000  0.02097907  0.04322081       0.004
  -0.00000000  0.01573431  0.04322081       0.004
  -0.00000000  0.01048954  0.04322081       0.004
  -0.00000000  0.00524477  0.04322081       0.004
  -0.00000000 -0.00000000  0.04322081       0.004
   0.00000000  0.11014014  0.00000000       0.004
  -0.00000000  0.11014014  0.00480231       0.004
  -0.00000000  0.11014014  0.00960463       0.004
  -0.00000000  0.11014014  0.01440694       0.004
  -0.00000000  0.11014014  0.01920925       0.004
  -0.00000000  0.11014014  0.02401156       0.004
  -0.00000000  0.11014014  0.02881388       0.004
  -0.00000000  0.11014014  0.03361619       0.004
  -0.00000000  0.11014014  0.03841850       0.004
  -0.00000000  0.11014014  0.04322081       0.004
   0.11994946 -0.00000000  0.04322081       0.004
   0.11994946 -0.00000000  0.03841850       0.004
   0.11994946 -0.00000000  0.03361619       0.004
   0.11994946 -0.00000000  0.02881388       0.004
   0.11994946 -0.00000000  0.02401156       0.004
   0.11994946 -0.00000000  0.01920925       0.004
   0.11994946 -0.00000000  0.01440694       0.004
   0.11994946 -0.00000000  0.00960463       0.004
   0.11994946 -0.00000000  0.00480231       0.004
   0.11994946 -0.00000000  0.00000000       0.004
   0.11994946  0.11014014  0.00000000       0.004
   0.11994946  0.11014014  0.00480231       0.004
   0.11994946  0.11014014  0.00960463       0.004
   0.11994946  0.11014014  0.01440694       0.004
   0.11994946  0.11014014  0.01920925       0.004
   0.11994946  0.11014014  0.02401156       0.004
   0.11994946  0.11014014  0.02881388       0.004
   0.11994946  0.11014014  0.03361619       0.004
   0.11994946  0.11014014  0.03841850       0.004
   0.11994946  0.11014014  0.04322081       0.004

 k-points in reciprocal lattice and weights: Non SCF run along symmetry lines        
   0.00000000  0.00000000  0.00000000       0.004
   0.02173913  0.00000000  0.00000000       0.004
   0.04347826  0.00000000  0.00000000       0.004
   0.06521739  0.00000000  0.00000000       0.004
   0.08695652  0.00000000  0.00000000       0.004
   0.10869565  0.00000000  0.00000000       0.004
   0.13043478  0.00000000  0.00000000       0.004
   0.15217391  0.00000000  0.00000000       0.004
   0.17391304  0.00000000  0.00000000       0.004
   0.19565217  0.00000000  0.00000000       0.004
   0.21739130  0.00000000  0.00000000       0.004
   0.23913043  0.00000000  0.00000000       0.004
   0.26086957  0.00000000  0.00000000       0.004
   0.28260870  0.00000000  0.00000000       0.004
   0.30434783  0.00000000  0.00000000       0.004
   0.32608696  0.00000000  0.00000000       0.004
   0.34782609  0.00000000  0.00000000       0.004
   0.36956522  0.00000000  0.00000000       0.004
   0.39130435  0.00000000  0.00000000       0.004
   0.41304348  0.00000000  0.00000000       0.004
   0.43478261  0.00000000  0.00000000       0.004
   0.45652174  0.00000000  0.00000000       0.004
   0.47826087  0.00000000  0.00000000       0.004
   0.50000000  0.00000000  0.00000000       0.004
   0.50000000  0.00000000  0.00000000       0.004
   0.50000000  0.02380952  0.00000000       0.004
   0.50000000  0.04761905  0.00000000       0.004
   0.50000000  0.07142857  0.00000000       0.004
   0.50000000  0.09523810  0.00000000       0.004
   0.50000000  0.11904762  0.00000000       0.004
   0.50000000  0.14285714  0.00000000       0.004
   0.50000000  0.16666667  0.00000000       0.004
   0.50000000  0.19047619  0.00000000       0.004
   0.50000000  0.21428571  0.00000000       0.004
   0.50000000  0.23809524  0.00000000       0.004
   0.50000000  0.26190476  0.00000000       0.004
   0.50000000  0.28571429  0.00000000       0.004
   0.50000000  0.30952381  0.00000000       0.004
   0.50000000  0.33333333  0.00000000       0.004
   0.50000000  0.35714286  0.00000000       0.004
   0.50000000  0.38095238  0.00000000       0.004
   0.50000000  0.40476190  0.00000000       0.004
   0.50000000  0.42857143  0.00000000       0.004
   0.50000000  0.45238095  0.00000000       0.004
   0.50000000  0.47619048  0.00000000       0.004
   0.50000000  0.50000000  0.00000000       0.004
   0.50000000  0.50000000  0.00000000       0.004
   0.47826087  0.50000000  0.00000000       0.004
   0.45652174  0.50000000  0.00000000       0.004
   0.43478261  0.50000000  0.00000000       0.004
   0.41304348  0.50000000  0.00000000       0.004
   0.39130435  0.50000000  0.00000000       0.004
   0.36956522  0.50000000  0.00000000       0.004
   0.34782609  0.50000000  0.00000000       0.004
   0.32608696  0.50000000  0.00000000       0.004
   0.30434783  0.50000000  0.00000000       0.004
   0.28260870  0.50000000  0.00000000       0.004
   0.26086957  0.50000000  0.00000000       0.004
   0.23913043  0.50000000  0.00000000       0.004
   0.21739130  0.50000000  0.00000000       0.004
   0.19565217  0.50000000  0.00000000       0.004
   0.17391304  0.50000000  0.00000000       0.004
   0.15217391  0.50000000  0.00000000       0.004
   0.13043478  0.50000000  0.00000000       0.004
   0.10869565  0.50000000  0.00000000       0.004
   0.08695652  0.50000000  0.00000000       0.004
   0.06521739  0.50000000  0.00000000       0.004
   0.04347826  0.50000000  0.00000000       0.004
   0.02173913  0.50000000  0.00000000       0.004
   0.00000000  0.50000000  0.00000000       0.004
   0.00000000  0.50000000  0.00000000       0.004
   0.00000000  0.47619048  0.00000000       0.004
   0.00000000  0.45238095  0.00000000       0.004
   0.00000000  0.42857143  0.00000000       0.004
   0.00000000  0.40476190  0.00000000       0.004
   0.00000000  0.38095238  0.00000000       0.004
   0.00000000  0.35714286  0.00000000       0.004
   0.00000000  0.33333333  0.00000000       0.004
   0.00000000  0.30952381  0.00000000       0.004
   0.00000000  0.28571429  0.00000000       0.004
   0.00000000  0.26190476  0.00000000       0.004
   0.00000000  0.23809524  0.00000000       0.004
   0.00000000  0.21428571  0.00000000       0.004
   0.00000000  0.19047619  0.00000000       0.004
   0.00000000  0.16666667  0.00000000       0.004
   0.00000000  0.14285714  0.00000000       0.004
   0.00000000  0.11904762  0.00000000       0.004
   0.00000000  0.09523810  0.00000000       0.004
   0.00000000  0.07142857  0.00000000       0.004
   0.00000000  0.04761905  0.00000000       0.004
   0.00000000  0.02380952  0.00000000       0.004
   0.00000000  0.00000000  0.00000000       0.004
   0.00000000  0.00000000  0.00000000       0.004
   0.00000000  0.00000000  0.05555556       0.004
   0.00000000  0.00000000  0.11111111       0.004
   0.00000000  0.00000000  0.16666667       0.004
   0.00000000  0.00000000  0.22222222       0.004
  -0.00000000 -0.00000000  0.27777778       0.004
   0.00000000  0.00000000  0.33333333       0.004
   0.00000000 -0.00000000  0.38888889       0.004
   0.00000000  0.00000000  0.44444444       0.004
   0.00000000  0.00000000  0.50000000       0.004
   0.00000000  0.00000000  0.50000000       0.004
   0.02173913  0.00000000  0.50000000       0.004
   0.04347826  0.00000000  0.50000000       0.004
   0.06521739  0.00000000  0.50000000       0.004
   0.08695652  0.00000000  0.50000000       0.004
   0.10869565 -0.00000000  0.50000000       0.004
   0.13043478  0.00000000  0.50000000       0.004
   0.15217391 -0.00000000  0.50000000       0.004
   0.17391304  0.00000000  0.50000000       0.004
   0.19565217  0.00000000  0.50000000       0.004
   0.21739130  0.00000000  0.50000000       0.004
   0.23913043  0.00000000  0.50000000       0.004
   0.26086957  0.00000000  0.50000000       0.004
   0.28260870  0.00000000  0.50000000       0.004
   0.30434783  0.00000000  0.50000000       0.004
   0.32608696  0.00000000  0.50000000       0.004
   0.34782609  0.00000000  0.50000000       0.004
   0.36956522  0.00000000  0.50000000       0.004
   0.39130435 -0.00000000  0.50000000       0.004
   0.41304348 -0.00000000  0.50000000       0.004
   0.43478261 -0.00000000  0.50000000       0.004
   0.45652174 -0.00000000  0.50000000       0.004
   0.47826087  0.00000000  0.50000000       0.004
   0.50000000  0.00000000  0.50000000       0.004
   0.50000000  0.00000000  0.50000000       0.004
   0.50000000  0.02380952  0.50000000       0.004
   0.50000000  0.04761905  0.50000000       0.004
   0.50000000  0.07142857  0.50000000       0.004
   0.50000000  0.09523810  0.50000000       0.004
   0.50000000  0.11904762  0.50000000       0.004
   0.50000000  0.14285714  0.50000000       0.004
   0.50000000  0.16666667  0.50000000       0.004
   0.50000000  0.19047619  0.50000000       0.004
   0.50000000  0.21428571  0.50000000       0.004
   0.50000000  0.23809524  0.50000000       0.004
   0.50000000  0.26190476  0.50000000       0.004
   0.50000000  0.28571429  0.50000000       0.004
   0.50000000  0.30952381  0.50000000       0.004
   0.50000000  0.33333333  0.50000000       0.004
   0.50000000  0.35714286  0.50000000       0.004
   0.50000000  0.38095238  0.50000000       0.004
   0.50000000  0.40476190  0.50000000       0.004
   0.50000000  0.42857143  0.50000000       0.004
   0.50000000  0.45238095  0.50000000       0.004
   0.50000000  0.47619048  0.50000000       0.004
   0.50000000  0.50000000  0.50000000       0.004
   0.50000000  0.50000000  0.50000000       0.004
   0.47826087  0.50000000  0.50000000       0.004
   0.45652174  0.50000000  0.50000000       0.004
   0.43478261  0.50000000  0.50000000       0.004
   0.41304348  0.50000000  0.50000000       0.004
   0.39130435  0.50000000  0.50000000       0.004
   0.36956522  0.50000000  0.50000000       0.004
   0.34782609  0.50000000  0.50000000       0.004
   0.32608696  0.50000000  0.50000000       0.004
   0.30434783  0.50000000  0.50000000       0.004
   0.28260870  0.50000000  0.50000000       0.004
   0.26086957  0.50000000  0.50000000       0.004
   0.23913043  0.50000000  0.50000000       0.004
   0.21739130  0.50000000  0.50000000       0.004
   0.19565217  0.50000000  0.50000000       0.004
   0.17391304  0.50000000  0.50000000       0.004
   0.15217391  0.50000000  0.50000000       0.004
   0.13043478  0.50000000  0.50000000       0.004
   0.10869565  0.50000000  0.50000000       0.004
   0.08695652  0.50000000  0.50000000       0.004
   0.06521739  0.50000000  0.50000000       0.004
   0.04347826  0.50000000  0.50000000       0.004
   0.02173913  0.50000000  0.50000000       0.004
   0.00000000  0.50000000  0.50000000       0.004
   0.00000000  0.50000000  0.50000000       0.004
   0.00000000  0.47619048  0.50000000       0.004
   0.00000000  0.45238095  0.50000000       0.004
   0.00000000  0.42857143  0.50000000       0.004
   0.00000000  0.40476190  0.50000000       0.004
   0.00000000  0.38095238  0.50000000       0.004
   0.00000000  0.35714286  0.50000000       0.004
   0.00000000  0.33333333  0.50000000       0.004
   0.00000000  0.30952381  0.50000000       0.004
   0.00000000  0.28571429  0.50000000       0.004
   0.00000000  0.26190476  0.50000000       0.004
   0.00000000  0.23809524  0.50000000       0.004
   0.00000000  0.21428571  0.50000000       0.004
   0.00000000  0.19047619  0.50000000       0.004
   0.00000000  0.16666667  0.50000000       0.004
   0.00000000  0.14285714  0.50000000       0.004
   0.00000000  0.11904762  0.50000000       0.004
   0.00000000  0.09523810  0.50000000       0.004
   0.00000000  0.07142857  0.50000000       0.004
   0.00000000  0.04761905  0.50000000       0.004
   0.00000000  0.02380952  0.50000000       0.004
   0.00000000  0.00000000  0.50000000       0.004
   0.00000000  0.50000000  0.00000000       0.004
   0.00000000  0.50000000  0.05555556       0.004
   0.00000000  0.50000000  0.11111111       0.004
   0.00000000  0.50000000  0.16666667       0.004
   0.00000000  0.50000000  0.22222222       0.004
  -0.00000000  0.50000000  0.27777778       0.004
   0.00000000  0.50000000  0.33333333       0.004
   0.00000000  0.50000000  0.38888889       0.004
   0.00000000  0.50000000  0.44444444       0.004
   0.00000000  0.50000000  0.50000000       0.004
   0.50000000  0.00000000  0.50000000       0.004
   0.50000000  0.00000000  0.44444444       0.004
   0.50000000  0.00000000  0.38888889       0.004
   0.50000000  0.00000000  0.33333333       0.004
   0.50000000  0.00000000  0.27777778       0.004
   0.50000000  0.00000000  0.22222222       0.004
   0.50000000  0.00000000  0.16666667       0.004
   0.50000000 -0.00000000  0.11111111       0.004
   0.50000000  0.00000000  0.05555556       0.004
   0.50000000  0.00000000  0.00000000       0.004
   0.50000000  0.50000000  0.00000000       0.004
   0.50000000  0.50000000  0.05555556       0.004
   0.50000000  0.50000000  0.11111111       0.004
   0.50000000  0.50000000  0.16666667       0.004
   0.50000000  0.50000000  0.22222222       0.004
   0.50000000  0.50000000  0.27777778       0.004
   0.50000000  0.50000000  0.33333333       0.004
   0.50000000  0.50000000  0.38888889       0.004
   0.50000000  0.50000000  0.44444444       0.004
   0.50000000  0.50000000  0.50000000       0.004

 position of ions in fractional coordinates (direct lattice) 
   0.25000000  0.11238621  0.11664596
   0.75000000  0.88761379  0.88335404
   0.75000000  0.61238621  0.38335404
   0.25000000  0.38761379  0.61664596
   0.75000000  0.51916418  0.14510650
   0.25000000  0.48083582  0.85489350
   0.25000000  0.01916418  0.35489350
   0.75000000  0.98083582  0.64510650

 position of ions in cartesian coordinates  (Angst):
   1.04210556  0.51019640  1.34941880
   3.12631669  4.02947446 10.21908133
   3.12631669  2.78003183  4.43483126
   1.04210556  1.75963903  7.13366887
   3.12631669  2.35683450  1.67866456
   1.04210556  2.18283636  9.88983557
   1.04210556  0.08699907  4.10558550
   3.12631669  4.45267179  7.46291463



--------------------------------------------------------------------------------------------------------


 k-point  1 :   0.0000 0.0000 0.0000  plane waves:    7285
 k-point  2 :   0.0217 0.0000 0.0000  plane waves:    7301
 k-point  3 :   0.0435 0.0000 0.0000  plane waves:    7303
 k-point  4 :   0.0652 0.0000 0.0000  plane waves:    7309
 k-point  5 :   0.0870 0.0000 0.0000  plane waves:    7309
 k-point  6 :   0.1087 0.0000 0.0000  plane waves:    7301
 k-point  7 :   0.1304 0.0000 0.0000  plane waves:    7293
 k-point  8 :   0.1522 0.0000 0.0000  plane waves:    7295
 k-point  9 :   0.1739 0.0000 0.0000  plane waves:    7289
 k-point 10 :   0.1957 0.0000 0.0000  plane waves:    7299
 k-point 11 :   0.2174 0.0000 0.0000  plane waves:    7291
 k-point 12 :   0.2391 0.0000 0.0000  plane waves:    7297
 k-point 13 :   0.2609 0.0000 0.0000  plane waves:    7297
 k-point 14 :   0.2826 0.0000 0.0000  plane waves:    7281
 k-point 15 :   0.3043 0.0000 0.0000  plane waves:    7301
 k-point 16 :   0.3261 0.0000 0.0000  plane waves:    7288
 k-point 17 :   0.3478 0.0000 0.0000  plane waves:    7272
 k-point 18 :   0.3696 0.0000 0.0000  plane waves:    7278
 k-point 19 :   0.3913 0.0000 0.0000  plane waves:    7280
 k-point 20 :   0.4130 0.0000 0.0000  plane waves:    7284
 k-point 21 :   0.4348 0.0000 0.0000  plane waves:    7280
 k-point 22 :   0.4565 0.0000 0.0000  plane waves:    7278
 k-point 23 :   0.4783 0.0000 0.0000  plane waves:    7270
 k-point 24 :   0.5000 0.0000 0.0000  plane waves:    7276
 k-point 25 :   0.5000 0.0000 0.0000  plane waves:    7276
 k-point 26 :   0.5000 0.0238 0.0000  plane waves:    7268
 k-point 27 :   0.5000 0.0476 0.0000  plane waves:    7268
 k-point 28 :   0.5000 0.0714 0.0000  plane waves:    7272
 k-point 29 :   0.5000 0.0952 0.0000  plane waves:    7286
 k-point 30 :   0.5000 0.1190 0.0000  plane waves:    7294
 k-point 31 :   0.5000 0.1429 0.0000  plane waves:    7290
 k-point 32 :   0.5000 0.1667 0.0000  plane waves:    7290
 k-point 33 :   0.5000 0.1905 0.0000  plane waves:    7294
 k-point 34 :   0.5000 0.2143 0.0000  plane waves:    7296
 k-point 35 :   0.5000 0.2381 0.0000  plane waves:    7274
 k-point 36 :   0.5000 0.2619 0.0000  plane waves:    7298
 k-point 37 :   0.5000 0.2857 0.0000  plane waves:    7310
 k-point 38 :   0.5000 0.3095 0.0000  plane waves:    7318
 k-point 39 :   0.5000 0.3333 0.0000  plane waves:    7310
 k-point 40 :   0.5000 0.3571 0.0000  plane waves:    7306
 k-point 41 :   0.5000 0.3810 0.0000  plane waves:    7324
 k-point 42 :   0.5000 0.4048 0.0000  plane waves:    7340
 k-point 43 :   0.5000 0.4286 0.0000  plane waves:    7332
 k-point 44 :   0.5000 0.4524 0.0000  plane waves:    7324
 k-point 45 :   0.5000 0.4762 0.0000  plane waves:    7316
 k-point 46 :   0.5000 0.5000 0.0000  plane waves:    7328
 k-point 47 :   0.5000 0.5000 0.0000  plane waves:    7328
 k-point 48 :   0.4783 0.5000 0.0000  plane waves:    7328
 k-point 49 :   0.4565 0.5000 0.0000  plane waves:    7340
 k-point 50 :   0.4348 0.5000 0.0000  plane waves:    7328
 k-point 51 :   0.4130 0.5000 0.0000  plane waves:    7328
 k-point 52 :   0.3913 0.5000 0.0000  plane waves:    7312
 k-point 53 :   0.3696 0.5000 0.0000  plane waves:    7302
 k-point 54 :   0.3478 0.5000 0.0000  plane waves:    7302
 k-point 55 :   0.3261 0.5000 0.0000  plane waves:    7286
 k-point 56 :   0.3043 0.5000 0.0000  plane waves:    7296
 k-point 57 :   0.2826 0.5000 0.0000  plane waves:    7296
 k-point 58 :   0.2609 0.5000 0.0000  plane waves:    7304
 k-point 59 :   0.2391 0.5000 0.0000  plane waves:    7316
 k-point 60 :   0.2174 0.5000 0.0000  plane waves:    7314
 k-point 61 :   0.1957 0.5000 0.0000  plane waves:    7298
 k-point 62 :   0.1739 0.5000 0.0000  plane waves:    7314
 k-point 63 :   0.1522 0.5000 0.0000  plane waves:    7306
 k-point 64 :   0.1304 0.5000 0.0000  plane waves:    7334
 k-point 65 :   0.1087 0.5000 0.0000  plane waves:    7338
 k-point 66 :   0.0870 0.5000 0.0000  plane waves:    7336
 k-point 67 :   0.0652 0.5000 0.0000  plane waves:    7332
 k-point 68 :   0.0435 0.5000 0.0000  plane waves:    7328
 k-point 69 :   0.0217 0.5000 0.0000  plane waves:    7328
 k-point 70 :   0.0000 0.5000 0.0000  plane waves:    7318
 k-point 71 :   0.0000 0.5000 0.0000  plane waves:    7318
 k-point 72 :   0.0000 0.4762 0.0000  plane waves:    7328
 k-point 73 :   0.0000 0.4524 0.0000  plane waves:    7318
 k-point 74 :   0.0000 0.4286 0.0000  plane waves:    7334
 k-point 75 :   0.0000 0.4048 0.0000  plane waves:    7338
 k-point 76 :   0.0000 0.3810 0.0000  plane waves:    7346
 k-point 77 :   0.0000 0.3571 0.0000  plane waves:    7340
 k-point 78 :   0.0000 0.3333 0.0000  plane waves:    7330
 k-point 79 :   0.0000 0.3095 0.0000  plane waves:    7308
 k-point 80 :   0.0000 0.2857 0.0000  plane waves:    7308
 k-point 81 :   0.0000 0.2619 0.0000  plane waves:    7318
 k-point 82 :   0.0000 0.2381 0.0000  plane waves:    7312
 k-point 83 :   0.0000 0.2143 0.0000  plane waves:    7308
 k-point 84 :   0.0000 0.1905 0.0000  plane waves:    7316
 k-point 85 :   0.0000 0.1667 0.0000  plane waves:    7318
 k-point 86 :   0.0000 0.1429 0.0000  plane waves:    7318
 k-point 87 :   0.0000 0.1190 0.0000  plane waves:    7306
 k-point 88 :   0.0000 0.0952 0.0000  plane waves:    7304
 k-point 89 :   0.0000 0.0714 0.0000  plane waves:    7302
 k-point 90 :   0.0000 0.0476 0.0000  plane waves:    7305
 k-point 91 :   0.0000 0.0238 0.0000  plane waves:    7305
 k-point 92 :   0.0000 0.0000 0.0000  plane waves:    7285
 k-point 93 :   0.0000 0.0000 0.0000  plane waves:    7285
 k-point 94 :   0.0000 0.0000 0.0556  plane waves:    7297
 k-point 95 :   0.0000 0.0000 0.1111  plane waves:    7282
 k-point 96 :   0.0000 0.0000 0.1667  plane waves:    7292
 k-point 97 :   0.0000 0.0000 0.2222  plane waves:    7304
 k-point 98 :  -0.0000-0.0000 0.2778  plane waves:    7310
 k-point 99 :   0.0000 0.0000 0.3333  plane waves:    7302
 k-point ** :   0.0000-0.0000 0.3889  plane waves:    7286
 k-point ** :   0.0000 0.0000 0.4444  plane waves:    7266
 k-point ** :   0.0000 0.0000 0.5000  plane waves:    7278
 k-point ** :   0.0000 0.0000 0.5000  plane waves:    7278
 k-point ** :   0.0217 0.0000 0.5000  plane waves:    7280
 k-point ** :   0.0435 0.0000 0.5000  plane waves:    7280
 k-point ** :   0.0652 0.0000 0.5000  plane waves:    7294
 k-point ** :   0.0870 0.0000 0.5000  plane waves:    7288
 k-point ** :   0.1087-0.0000 0.5000  plane waves:    7310
 k-point ** :   0.1304 0.0000 0.5000  plane waves:    7304
 k-point ** :   0.1522-0.0000 0.5000  plane waves:    7304
 k-point ** :   0.1739 0.0000 0.5000  plane waves:    7310
 k-point ** :   0.1957 0.0000 0.5000  plane waves:    7316
 k-point ** :   0.2174 0.0000 0.5000  plane waves:    7308
 k-point ** :   0.2391 0.0000 0.5000  plane waves:    7288
 k-point ** :   0.2609 0.0000 0.5000  plane waves:    7308
 k-point ** :   0.2826 0.0000 0.5000  plane waves:    7302
 k-point ** :   0.3043 0.0000 0.5000  plane waves:    7294
 k-point ** :   0.3261 0.0000 0.5000  plane waves:    7302
 k-point ** :   0.3478 0.0000 0.5000  plane waves:    7318
 k-point ** :   0.3696 0.0000 0.5000  plane waves:    7310
 k-point ** :   0.3913-0.0000 0.5000  plane waves:    7294
 k-point ** :   0.4130-0.0000 0.5000  plane waves:    7300
 k-point ** :   0.4348-0.0000 0.5000  plane waves:    7294
 k-point ** :   0.4565-0.0000 0.5000  plane waves:    7272
 k-point ** :   0.4783 0.0000 0.5000  plane waves:    7286
 k-point ** :   0.5000 0.0000 0.5000  plane waves:    7292
 k-point ** :   0.5000 0.0000 0.5000  plane waves:    7292
 k-point ** :   0.5000 0.0238 0.5000  plane waves:    7300
 k-point ** :   0.5000 0.0476 0.5000  plane waves:    7276
 k-point ** :   0.5000 0.0714 0.5000  plane waves:    7280
 k-point ** :   0.5000 0.0952 0.5000  plane waves:    7276
 k-point ** :   0.5000 0.1190 0.5000  plane waves:    7284
 k-point ** :   0.5000 0.1429 0.5000  plane waves:    7288
 k-point ** :   0.5000 0.1667 0.5000  plane waves:    7300
 k-point ** :   0.5000 0.1905 0.5000  plane waves:    7296
 k-point ** :   0.5000 0.2143 0.5000  plane waves:    7304
 k-point ** :   0.5000 0.2381 0.5000  plane waves:    7304
 k-point ** :   0.5000 0.2619 0.5000  plane waves:    7292
 k-point ** :   0.5000 0.2857 0.5000  plane waves:    7288
 k-point ** :   0.5000 0.3095 0.5000  plane waves:    7296
 k-point ** :   0.5000 0.3333 0.5000  plane waves:    7296
 k-point ** :   0.5000 0.3571 0.5000  plane waves:    7304
 k-point ** :   0.5000 0.3810 0.5000  plane waves:    7308
 k-point ** :   0.5000 0.4048 0.5000  plane waves:    7324
 k-point ** :   0.5000 0.4286 0.5000  plane waves:    7320
 k-point ** :   0.5000 0.4524 0.5000  plane waves:    7324
 k-point ** :   0.5000 0.4762 0.5000  plane waves:    7332
 k-point ** :   0.5000 0.5000 0.5000  plane waves:    7344
 k-point ** :   0.5000 0.5000 0.5000  plane waves:    7344
 k-point ** :   0.4783 0.5000 0.5000  plane waves:    7344
 k-point ** :   0.4565 0.5000 0.5000  plane waves:    7340
 k-point ** :   0.4348 0.5000 0.5000  plane waves:    7336
 k-point ** :   0.4130 0.5000 0.5000  plane waves:    7336
 k-point ** :   0.3913 0.5000 0.5000  plane waves:    7336
 k-point ** :   0.3696 0.5000 0.5000  plane waves:    7320
 k-point ** :   0.3478 0.5000 0.5000  plane waves:    7328
 k-point ** :   0.3261 0.5000 0.5000  plane waves:    7308
 k-point ** :   0.3043 0.5000 0.5000  plane waves:    7304
 k-point ** :   0.2826 0.5000 0.5000  plane waves:    7308
 k-point ** :   0.2609 0.5000 0.5000  plane waves:    7304
 k-point ** :   0.2391 0.5000 0.5000  plane waves:    7292
 k-point ** :   0.2174 0.5000 0.5000  plane waves:    7304
 k-point ** :   0.1957 0.5000 0.5000  plane waves:    7308
 k-point ** :   0.1739 0.5000 0.5000  plane waves:    7308
 k-point ** :   0.1522 0.5000 0.5000  plane waves:    7316
 k-point ** :   0.1304 0.5000 0.5000  plane waves:    7296
 k-point ** :   0.1087 0.5000 0.5000  plane waves:    7308
 k-point ** :   0.0870 0.5000 0.5000  plane waves:    7308
 k-point ** :   0.0652 0.5000 0.5000  plane waves:    7304
 k-point ** :   0.0435 0.5000 0.5000  plane waves:    7320
 k-point ** :   0.0217 0.5000 0.5000  plane waves:    7320
 k-point ** :   0.0000 0.5000 0.5000  plane waves:    7328
 k-point ** :   0.0000 0.5000 0.5000  plane waves:    7328
 k-point ** :   0.0000 0.4762 0.5000  plane waves:    7316
 k-point ** :   0.0000 0.4524 0.5000  plane waves:    7304
 k-point ** :   0.0000 0.4286 0.5000  plane waves:    7308
 k-point ** :   0.0000 0.4048 0.5000  plane waves:    7294
 k-point ** :   0.0000 0.3810 0.5000  plane waves:    7294
 k-point ** :   0.0000 0.3571 0.5000  plane waves:    7290
 k-point ** :   0.0000 0.3333 0.5000  plane waves:    7304
 k-point ** :   0.0000 0.3095 0.5000  plane waves:    7310
 k-point ** :   0.0000 0.2857 0.5000  plane waves:    7308
 k-point ** :   0.0000 0.2619 0.5000  plane waves:    7320
 k-point ** :   0.0000 0.2381 0.5000  plane waves:    7320
 k-point ** :   0.0000 0.2143 0.5000  plane waves:    7316
 k-point ** :   0.0000 0.1905 0.5000  plane waves:    7310
 k-point ** :   0.0000 0.1667 0.5000  plane waves:    7312
 k-point ** :   0.0000 0.1429 0.5000  plane waves:    7324
 k-point ** :   0.0000 0.1190 0.5000  plane waves:    7324
 k-point ** :   0.0000 0.0952 0.5000  plane waves:    7310
 k-point ** :   0.0000 0.0714 0.5000  plane waves:    7302
 k-point ** :   0.0000 0.0476 0.5000  plane waves:    7278
 k-point ** :   0.0000 0.0238 0.5000  plane waves:    7272
 k-point ** :   0.0000 0.0000 0.5000  plane waves:    7278
 k-point ** :   0.0000 0.5000 0.0000  plane waves:    7318
 k-point ** :   0.0000 0.5000 0.0556  plane waves:    7322
 k-point ** :   0.0000 0.5000 0.1111  plane waves:    7320
 k-point ** :   0.0000 0.5000 0.1667  plane waves:    7312
 k-point ** :   0.0000 0.5000 0.2222  plane waves:    7300
 k-point ** :  -0.0000 0.5000 0.2778  plane waves:    7300
 k-point ** :   0.0000 0.5000 0.3333  plane waves:    7310
 k-point ** :   0.0000 0.5000 0.3889  plane waves:    7312
 k-point ** :   0.0000 0.5000 0.4444  plane waves:    7312
 k-point ** :   0.0000 0.5000 0.5000  plane waves:    7328
 k-point ** :   0.5000 0.0000 0.5000  plane waves:    7292
 k-point ** :   0.5000 0.0000 0.4444  plane waves:    7284
 k-point ** :   0.5000 0.0000 0.3889  plane waves:    7288
 k-point ** :   0.5000 0.0000 0.3333  plane waves:    7290
 k-point ** :   0.5000 0.0000 0.2778  plane waves:    7282
 k-point ** :   0.5000 0.0000 0.2222  plane waves:    7284
 k-point ** :   0.5000 0.0000 0.1667  plane waves:    7272
 k-point ** :   0.5000-0.0000 0.1111  plane waves:    7268
 k-point ** :   0.5000 0.0000 0.0556  plane waves:    7262
 k-point ** :   0.5000 0.0000 0.0000  plane waves:    7276
 k-point ** :   0.5000 0.5000 0.0000  plane waves:    7328
 k-point ** :   0.5000 0.5000 0.0556  plane waves:    7324
 k-point ** :   0.5000 0.5000 0.1111  plane waves:    7340
 k-point ** :   0.5000 0.5000 0.1667  plane waves:    7336
 k-point ** :   0.5000 0.5000 0.2222  plane waves:    7336
 k-point ** :   0.5000 0.5000 0.2778  plane waves:    7336
 k-point ** :   0.5000 0.5000 0.3333  plane waves:    7336
 k-point ** :   0.5000 0.5000 0.3889  plane waves:    7336
 k-point ** :   0.5000 0.5000 0.4444  plane waves:    7340
 k-point ** :   0.5000 0.5000 0.5000  plane waves:    7344

 maximum and minimum number of plane-waves per node :      3689     3610

 maximum number of plane-waves:      7346
 maximum index in each direction: 
   IXMAX=    8   IYMAX=    9   IZMAX=   23
   IXMIN=   -8   IYMIN=   -9   IZMIN=  -23


 real space projection operators:
  total allocation   :       4782.19 KBytes
  max/ min on nodes  :       2394.38       2387.81


 parallel 3D FFT for wavefunctions:
    minimum data exchange during FFTs selected (reduces bandwidth)
 parallel 3D FFT for charge:
    minimum data exchange during FFTs selected (reduces bandwidth)


 total amount of memory used by VASP MPI-rank0   666575. kBytes
=======================================================================

   base      :      30000. kBytes
   nonlr-proj:       3736. kBytes
   fftplans  :      20074. kBytes
   grid      :       9517. kBytes
   one-center:         62. kBytes
   wavefun   :     603186. kBytes

     INWAV:  cpu time    0.0000: real time    0.0000
 initial charge density was supplied:
 number of electron      79.9999999 magnetization 
 keeping initial charge density in first step


--------------------------------------------------------------------------------------------------------


 Maximum index for non-local projection operator         2818
 Maximum index for augmentation-charges        24620 (set IRDMAX)


--------------------------------------------------------------------------------------------------------


 First call to EWALD:  gamma=   0.294
 Maximum number of real-space cells 4x 3x 2
 Maximum number of reciprocal cells 2x 2x 5

    FEWALD:  cpu time    0.0011: real time    0.0011


--------------------------------------- Iteration      1(   1)  ---------------------------------------


    POTLOK:  cpu time    0.1151: real time    0.1152
    SETDIJ:  cpu time    0.1568: real time    0.1569
    TRIAL :  cpu time   62.4011: real time   62.5354
    CORREC:  cpu time    0.0059: real time    0.0059
    --------------------------------------------
      LOOP:  cpu time   62.9073: real time   63.0422

 eigenvalue-minimisations  : 30380
 total energy-change (2. order) : 0.9165484E+03  (-0.3915918E+04)
 number of electron      79.9999999 magnetization 
 augmentation part       79.9999999 magnetization 

 Free energy of the ion-electron system (eV)
  ---------------------------------------------------
  alpha Z        PSCENC =       201.88417816
  Ewald energy   TEWEN  =     -5919.77645388
  -Hartree energ DENC   =     -2398.15554250
  -exchange      EXHF   =         0.00000000
  -V(xc)+E(xc)   XCENC  =       225.07947965
  PAW double counting   =      8375.84262308    -8469.76292181
  entropy T*S    EENTRO =        -0.00335915
  eigenvalues    EBANDS =       300.49562245
  atomic energy  EATOM  =      8600.94477988
  ---------------------------------------------------
  free energy    TOTEN  =       916.54840588 eV

  energy without entropy =      916.55176503  energy(sigma->0) =      916.55008546


--------------------------------------------------------------------------------------------------------




--------------------------------------- Iteration      1(   2)  ---------------------------------------


    TRIAL :  cpu time   56.6599: real time   56.7186
    CORREC:  cpu time    0.0061: real time    0.0062
    --------------------------------------------
      LOOP:  cpu time   56.6664: real time   56.7252

 eigenvalue-minimisations  : 26912
 total energy-change (2. order) :-0.7797316E+03  (-0.7355181E+03)
 number of electron      79.9999999 magnetization 
 augmentation part       79.9999999 magnetization 

 Free energy of the ion-electron system (eV)
  ---------------------------------------------------
  alpha Z        PSCENC =       201.88417816
  Ewald energy   TEWEN  =     -5919.77645388
  -Hartree energ DENC   =     -2398.15554250
  -exchange      EXHF   =         0.00000000
  -V(xc)+E(xc)   XCENC  =       225.07947965
  PAW double counting   =      8375.84262308    -8469.76292181
  entropy T*S    EENTRO =        -0.00318721
  eigenvalues    EBANDS =      -479.23616087
  atomic energy  EATOM  =      8600.94477988
  ---------------------------------------------------
  free energy    TOTEN  =       136.81679450 eV

  energy without entropy =      136.81998171  energy(sigma->0) =      136.81838810


--------------------------------------------------------------------------------------------------------




--------------------------------------- Iteration      1(   3)  ---------------------------------------


    TRIAL :  cpu time   62.5521: real time   62.6228
    CORREC:  cpu time    0.0036: real time    0.0036
    --------------------------------------------
      LOOP:  cpu time   62.5560: real time   62.6267

 eigenvalue-minimisations  : 30692
 total energy-change (2. order) :-0.1575751E+03  (-0.1500220E+03)
 number of electron      79.9999999 magnetization 
 augmentation part       79.9999999 magnetization 

 Free energy of the ion-electron system (eV)
  ---------------------------------------------------
  alpha Z        PSCENC =       201.88417816
  Ewald energy   TEWEN  =     -5919.77645388
  -Hartree energ DENC   =     -2398.15554250
  -exchange      EXHF   =         0.00000000
  -V(xc)+E(xc)   XCENC  =       225.07947965
  PAW double counting   =      8375.84262308    -8469.76292181
  entropy T*S    EENTRO =        -0.00000000
  eigenvalues    EBANDS =      -636.81445214
  atomic energy  EATOM  =      8600.94477988
  ---------------------------------------------------
  free energy    TOTEN  =       -20.75830957 eV

  energy without entropy =      -20.75830957  energy(sigma->0) =      -20.75830957


--------------------------------------------------------------------------------------------------------




--------------------------------------- Iteration      1(   4)  ---------------------------------------


    TRIAL :  cpu time   64.6700: real time   64.7346
    CORREC:  cpu time    0.0035: real time    0.0035
    --------------------------------------------
      LOOP:  cpu time   64.6740: real time   64.7385

 eigenvalue-minimisations  : 31936
 total energy-change (2. order) :-0.1148288E+02  (-0.1129856E+02)
 number of electron      79.9999999 magnetization 
 augmentation part       79.9999999 magnetization 

 Free energy of the ion-electron system (eV)
  ---------------------------------------------------
  alpha Z        PSCENC =       201.88417816
  Ewald energy   TEWEN  =     -5919.77645388
  -Hartree energ DENC   =     -2398.15554250
  -exchange      EXHF   =         0.00000000
  -V(xc)+E(xc)   XCENC  =       225.07947965
  PAW double counting   =      8375.84262308    -8469.76292181
  entropy T*S    EENTRO =        -0.00000000
  eigenvalues    EBANDS =      -648.29732903
  atomic energy  EATOM  =      8600.94477988
  ---------------------------------------------------
  free energy    TOTEN  =       -32.24118645 eV

  energy without entropy =      -32.24118645  energy(sigma->0) =      -32.24118645


--------------------------------------------------------------------------------------------------------




--------------------------------------- Iteration      1(   5)  ---------------------------------------


    TRIAL :  cpu time   63.3410: real time   63.4373
    CORREC:  cpu time    0.0036: real time    0.0037
    --------------------------------------------
      LOOP:  cpu time   63.3451: real time   63.4416

 eigenvalue-minimisations  : 30864
 total energy-change (2. order) :-0.3013970E+00  (-0.3009812E+00)
 number of electron      79.9999999 magnetization 
 augmentation part       79.9999999 magnetization 

 Free energy of the ion-electron system (eV)
  ---------------------------------------------------
  alpha Z        PSCENC =       201.88417816
  Ewald energy   TEWEN  =     -5919.77645388
  -Hartree energ DENC   =     -2398.15554250
  -exchange      EXHF   =         0.00000000
  -V(xc)+E(xc)   XCENC  =       225.07947965
  PAW double counting   =      8375.84262308    -8469.76292181
  entropy T*S    EENTRO =        -0.00000000
  eigenvalues    EBANDS =      -648.59872600
  atomic energy  EATOM  =      8600.94477988
  ---------------------------------------------------
  free energy    TOTEN  =       -32.54258342 eV

  energy without entropy =      -32.54258342  energy(sigma->0) =      -32.54258342


--------------------------------------------------------------------------------------------------------




--------------------------------------- Iteration      1(   6)  ---------------------------------------


    TRIAL :  cpu time   34.1945: real time   34.8091
    CORREC:  cpu time    5.8328: real time    5.8506
    --------------------------------------------
      LOOP:  cpu time   40.0277: real time   40.6602

 eigenvalue-minimisations  :     0
 total energy-change (2. order) :-0.1818989E-10  (-0.8647881E-02)
 number of electron      79.9999999 magnetization 
 augmentation part       79.9999999 magnetization 

 Free energy of the ion-electron system (eV)
  ---------------------------------------------------
  alpha Z        PSCENC =       201.88417816
  Ewald energy   TEWEN  =     -5919.77645388
  -Hartree energ DENC   =     -2398.15554250
  -exchange      EXHF   =         0.00000000
  -V(xc)+E(xc)   XCENC  =       225.07947965
  PAW double counting   =      8375.84262308    -8469.76292181
  entropy T*S    EENTRO =        -0.00000000
  eigenvalues    EBANDS =      -648.59872600
  atomic energy  EATOM  =      8600.94477988
  ---------------------------------------------------
  free energy    TOTEN  =       -32.54258342 eV

  energy without entropy =      -32.54258342  energy(sigma->0) =      -32.54258342


--------------------------------------------------------------------------------------------------------




--------------------------------------- Iteration      1(   7)  ---------------------------------------


    TRIAL :  cpu time   34.0933: real time   34.5200
    CORREC:  cpu time    5.8301: real time    5.8426
    --------------------------------------------
      LOOP:  cpu time   39.9239: real time   40.3630

 eigenvalue-minimisations  :     0
 total energy-change (2. order) :-0.8647877E-02  (-0.2735216E-02)
 number of electron      79.9999999 magnetization 
 augmentation part       79.9999999 magnetization 

 Free energy of the ion-electron system (eV)
  ---------------------------------------------------
  alpha Z        PSCENC =       201.88417816
  Ewald energy   TEWEN  =     -5919.77645388
  -Hartree energ DENC   =     -2398.15554250
  -exchange      EXHF   =         0.00000000
  -V(xc)+E(xc)   XCENC  =       225.07947965
  PAW double counting   =      8375.84262308    -8469.76292181
  entropy T*S    EENTRO =        -0.00000000
  eigenvalues    EBANDS =      -648.60737387
  atomic energy  EATOM  =      8600.94477988
  ---------------------------------------------------
  free energy    TOTEN  =       -32.55123129 eV

  energy without entropy =      -32.55123129  energy(sigma->0) =      -32.55123129


--------------------------------------------------------------------------------------------------------




--------------------------------------- Iteration      1(   8)  ---------------------------------------


    TRIAL :  cpu time   34.1354: real time   34.3921
    CORREC:  cpu time    5.7892: real time    5.8092
    --------------------------------------------
      LOOP:  cpu time   39.9249: real time   40.2016

 eigenvalue-minimisations  :     0
 total energy-change (2. order) :-0.2735149E-02  (-0.1088003E-02)
 number of electron      79.9999999 magnetization 
 augmentation part       79.9999999 magnetization 

 Free energy of the ion-electron system (eV)
  ---------------------------------------------------
  alpha Z        PSCENC =       201.88417816
  Ewald energy   TEWEN  =     -5919.77645388
  -Hartree energ DENC   =     -2398.15554250
  -exchange      EXHF   =         0.00000000
  -V(xc)+E(xc)   XCENC  =       225.07947965
  PAW double counting   =      8375.84262308    -8469.76292181
  entropy T*S    EENTRO =        -0.00000000
  eigenvalues    EBANDS =      -648.61010902
  atomic energy  EATOM  =      8600.94477988
  ---------------------------------------------------
  free energy    TOTEN  =       -32.55396644 eV

  energy without entropy =      -32.55396644  energy(sigma->0) =      -32.55396644


--------------------------------------------------------------------------------------------------------




--------------------------------------- Iteration      1(   9)  ---------------------------------------


    TRIAL :  cpu time   33.9551: real time   34.5284
    CORREC:  cpu time    5.9332: real time    5.9587
    --------------------------------------------
      LOOP:  cpu time   39.8886: real time   40.4875

 eigenvalue-minimisations  :     0
 total energy-change (2. order) :-0.1087926E-02  (-0.2447433E-03)
 number of electron      79.9999999 magnetization 
 augmentation part       79.9999999 magnetization 

 Free energy of the ion-electron system (eV)
  ---------------------------------------------------
  alpha Z        PSCENC =       201.88417816
  Ewald energy   TEWEN  =     -5919.77645388
  -Hartree energ DENC   =     -2398.15554250
  -exchange      EXHF   =         0.00000000
  -V(xc)+E(xc)   XCENC  =       225.07947965
  PAW double counting   =      8375.84262308    -8469.76292181
  entropy T*S    EENTRO =        -0.00000000
  eigenvalues    EBANDS =      -648.61119695
  atomic energy  EATOM  =      8600.94477988
  ---------------------------------------------------
  free energy    TOTEN  =       -32.55505437 eV

  energy without entropy =      -32.55505437  energy(sigma->0) =      -32.55505437


--------------------------------------------------------------------------------------------------------




--------------------------------------- Iteration      1(  10)  ---------------------------------------


    TRIAL :  cpu time   34.0229: real time   34.4787
    CORREC:  cpu time    5.8153: real time    5.8533
    --------------------------------------------
      LOOP:  cpu time   39.8387: real time   40.3337

 eigenvalue-minimisations  :     0
 total energy-change (2. order) :-0.2447377E-03  (-0.6669859E-04)
 number of electron      79.9999999 magnetization 
 augmentation part       79.9999999 magnetization 

 Free energy of the ion-electron system (eV)
  ---------------------------------------------------
  alpha Z        PSCENC =       201.88417816
  Ewald energy   TEWEN  =     -5919.77645388
  -Hartree energ DENC   =     -2398.15554250
  -exchange      EXHF   =         0.00000000
  -V(xc)+E(xc)   XCENC  =       225.07947965
  PAW double counting   =      8375.84262308    -8469.76292181
  entropy T*S    EENTRO =        -0.00000000
  eigenvalues    EBANDS =      -648.61144169
  atomic energy  EATOM  =      8600.94477988
  ---------------------------------------------------
  free energy    TOTEN  =       -32.55529911 eV

  energy without entropy =      -32.55529911  energy(sigma->0) =      -32.55529911


--------------------------------------------------------------------------------------------------------




--------------------------------------- Iteration      1(  11)  ---------------------------------------


    TRIAL :  cpu time   33.9998: real time   34.4006
    CORREC:  cpu time    5.8775: real time    5.8856
    --------------------------------------------
      LOOP:  cpu time   39.8776: real time   40.2865

 eigenvalue-minimisations  :     0
 total energy-change (2. order) :-0.6669839E-04  (-0.1733908E-04)
 number of electron      79.9999999 magnetization 
 augmentation part       79.9999999 magnetization 

 Free energy of the ion-electron system (eV)
  ---------------------------------------------------
  alpha Z        PSCENC =       201.88417816
  Ewald energy   TEWEN  =     -5919.77645388
  -Hartree energ DENC   =     -2398.15554250
  -exchange      EXHF   =         0.00000000
  -V(xc)+E(xc)   XCENC  =       225.07947965
  PAW double counting   =      8375.84262308    -8469.76292181
  entropy T*S    EENTRO =        -0.00000000
  eigenvalues    EBANDS =      -648.61150838
  atomic energy  EATOM  =      8600.94477988
  ---------------------------------------------------
  free energy    TOTEN  =       -32.55536580 eV

  energy without entropy =      -32.55536580  energy(sigma->0) =      -32.55536580


--------------------------------------------------------------------------------------------------------




--------------------------------------- Iteration      1(  12)  ---------------------------------------


    TRIAL :  cpu time   33.7563: real time   34.5668
    CORREC:  cpu time    5.8432: real time    5.8742
    --------------------------------------------
      LOOP:  cpu time   39.5999: real time   40.4413

 eigenvalue-minimisations  :     0
 total energy-change (2. order) :-0.1733959E-04  (-0.3330423E-05)
 number of electron      79.9999999 magnetization 
 augmentation part       79.9999999 magnetization 

 Free energy of the ion-electron system (eV)
  ---------------------------------------------------
  alpha Z        PSCENC =       201.88417816
  Ewald energy   TEWEN  =     -5919.77645388
  -Hartree energ DENC   =     -2398.15554250
  -exchange      EXHF   =         0.00000000
  -V(xc)+E(xc)   XCENC  =       225.07947965
  PAW double counting   =      8375.84262308    -8469.76292181
  entropy T*S    EENTRO =        -0.00000000
  eigenvalues    EBANDS =      -648.61152572
  atomic energy  EATOM  =      8600.94477988
  ---------------------------------------------------
  free energy    TOTEN  =       -32.55538314 eV

  energy without entropy =      -32.55538314  energy(sigma->0) =      -32.55538314


--------------------------------------------------------------------------------------------------------




--------------------------------------- Iteration      1(  13)  ---------------------------------------


    TRIAL :  cpu time   33.9246: real time   34.2906
    CORREC:  cpu time    5.8501: real time    5.8570
    --------------------------------------------
      LOOP:  cpu time   39.7751: real time   40.1480

 eigenvalue-minimisations  :     0
 total energy-change (2. order) :-0.3330406E-05  (-0.7216392E-06)
 number of electron      79.9999999 magnetization 
 augmentation part       79.9999999 magnetization 

 Free energy of the ion-electron system (eV)
  ---------------------------------------------------
  alpha Z        PSCENC =       201.88417816
  Ewald energy   TEWEN  =     -5919.77645388
  -Hartree energ DENC   =     -2398.15554250
  -exchange      EXHF   =         0.00000000
  -V(xc)+E(xc)   XCENC  =       225.07947965
  PAW double counting   =      8375.84262308    -8469.76292181
  entropy T*S    EENTRO =        -0.00000000
  eigenvalues    EBANDS =      -648.61152905
  atomic energy  EATOM  =      8600.94477988
  ---------------------------------------------------
  free energy    TOTEN  =       -32.55538647 eV

  energy without entropy =      -32.55538647  energy(sigma->0) =      -32.55538647


--------------------------------------------------------------------------------------------------------




--------------------------------------- Iteration      1(  14)  ---------------------------------------


    TRIAL :  cpu time   34.0900: real time   34.6805
    CORREC:  cpu time    5.8076: real time    5.8532
    --------------------------------------------
[...]
     52      11.6040      0.00000
     53      11.6870      0.00000
     54      11.6870      0.00000
     55      12.4448      0.00000
     56      12.4448      0.00000
     57      14.4467      0.00000
     58      14.4645      0.00000
     59      15.1755      0.00000
     60      15.3104      0.00000

 k-point   221 :       0.5000    0.5000    0.3333
  band No.  band energies     occupation 
      1     -16.1663      2.00000
      2     -16.1663      2.00000
      3     -16.1633      2.00000
      4     -16.1633      2.00000
      5     -16.1390      2.00000
      6     -16.1390      2.00000
      7     -16.1359      2.00000
      8     -16.1359      2.00000
      9     -16.1273      2.00000
     10     -16.1273      2.00000
     11     -16.1251      2.00000
     12     -16.1251      2.00000
     13     -16.1057      2.00000
     14     -16.1057      2.00000
     15     -16.1019      2.00000
     16     -16.1019      2.00000
     17     -16.0816      2.00000
     18     -16.0816      2.00000
     19     -16.0791      2.00000
     20     -16.0791      2.00000
     21      -7.2175      2.00000
     22      -7.2175      2.00000
     23      -7.2125      2.00000
     24      -7.2125      2.00000
     25      -1.5643      2.00000
     26      -1.5643      2.00000
     27      -1.4896      2.00000
     28      -1.4896      2.00000
     29       0.5592      2.00000
     30       0.5592      2.00000
     31       0.9562      2.00000
     32       0.9562      2.00000
     33       1.4186      2.00000
     34       1.4186      2.00000
     35       1.8283      2.00000
     36       1.8283      2.00000
     37       3.4198      2.00000
     38       3.4198      2.00000
     39       3.8579      2.00000
     40       3.8579      2.00000
     41       7.5502      0.00000
     42       7.5502      0.00000
     43       7.7972      0.00000
     44       7.7972      0.00000
     45       9.7542      0.00000
     46       9.7542      0.00000
     47       9.7890      0.00000
     48       9.7890      0.00000
     49      11.3346      0.00000
     50      11.3346      0.00000
     51      11.6674      0.00000
     52      11.6674      0.00000
     53      11.6695      0.00000
     54      11.6695      0.00000
     55      12.4430      0.00000
     56      12.4430      0.00000
     57      14.4233      0.00000
     58      14.4303      0.00000
     59      15.0909      0.00000
     60      15.1167      0.00000

 k-point   222 :       0.5000    0.5000    0.3889
  band No.  band energies     occupation 
      1     -16.1658      2.00000
      2     -16.1658      2.00000
      3     -16.1638      2.00000
      4     -16.1638      2.00000
      5     -16.1386      2.00000
      6     -16.1386      2.00000
      7     -16.1365      2.00000
      8     -16.1365      2.00000
      9     -16.1269      2.00000
     10     -16.1269      2.00000
     11     -16.1254      2.00000
     12     -16.1254      2.00000
     13     -16.1051      2.00000
     14     -16.1051      2.00000
     15     -16.1025      2.00000
     16     -16.1025      2.00000
     17     -16.0812      2.00000
     18     -16.0812      2.00000
     19     -16.0795      2.00000
     20     -16.0795      2.00000
     21      -7.2167      2.00000
     22      -7.2167      2.00000
     23      -7.2133      2.00000
     24      -7.2133      2.00000
     25      -1.5541      2.00000
     26      -1.5541      2.00000
     27      -1.5030      2.00000
     28      -1.5030      2.00000
     29       0.6227      2.00000
     30       0.6227      2.00000
     31       0.9054      2.00000
     32       0.9054      2.00000
     33       1.4467      2.00000
     34       1.4467      2.00000
     35       1.7400      2.00000
     36       1.7400      2.00000
     37       3.5270      2.00000
     38       3.5270      2.00000
     39       3.8280      2.00000
     40       3.8280      2.00000
     41       7.5432      0.00000
     42       7.5432      0.00000
     43       7.7189      0.00000
     44       7.7189      0.00000
     45       9.7574      0.00000
     46       9.7574      0.00000
     47       9.7774      0.00000
     48       9.7774      0.00000
     49      11.4578      0.00000
     50      11.4578      0.00000
     51      11.6464      0.00000
     52      11.6464      0.00000
     53      11.7784      0.00000
     54      11.7784      0.00000
     55      12.3835      0.00000
     56      12.3835      0.00000
     57      14.4618      0.00000
     58      14.5514      0.00000
     59      15.0350      0.00000
     60      15.1161      0.00000

 k-point   223 :       0.5000    0.5000    0.4444
  band No.  band energies     occupation 
      1     -16.1653      2.00000
      2     -16.1653      2.00000
      3     -16.1643      2.00000
      4     -16.1643      2.00000
      5     -16.1382      2.00000
      6     -16.1382      2.00000
      7     -16.1371      2.00000
      8     -16.1371      2.00000
      9     -16.1264      2.00000
     10     -16.1264      2.00000
     11     -16.1257      2.00000
     12     -16.1257      2.00000
     13     -16.1044      2.00000
     14     -16.1044      2.00000
     15     -16.1031      2.00000
     16     -16.1031      2.00000
     17     -16.0807      2.00000
     18     -16.0807      2.00000
     19     -16.0799      2.00000
     20     -16.0799      2.00000
     21      -7.2159      2.00000
     22      -7.2159      2.00000
     23      -7.2142      2.00000
     24      -7.2142      2.00000
     25      -1.5425      2.00000
     26      -1.5425      2.00000
     27      -1.5166      2.00000
     28      -1.5166      2.00000
     29       0.6922      2.00000
     30       0.6922      2.00000
     31       0.8387      2.00000
     32       0.8387      2.00000
     33       1.5008      2.00000
     34       1.5008      2.00000
     35       1.6532      2.00000
     36       1.6532      2.00000
     37       3.6254      2.00000
     38       3.6254      2.00000
     39       3.7788      2.00000
     40       3.7788      2.00000
     41       7.5581      0.00000
     42       7.5581      0.00000
     43       7.6494      0.00000
     44       7.6494      0.00000
     45       9.7602      0.00000
     46       9.7602      0.00000
     47       9.7692      0.00000
     48       9.7692      0.00000
     49      11.5334      0.00000
     50      11.5334      0.00000
     51      11.6176      0.00000
     52      11.6176      0.00000
     53      11.9377      0.00000
     54      11.9377      0.00000
     55      12.2676      0.00000
     56      12.2676      0.00000
     57      14.5750      0.00000
     58      14.6540      0.00000
     59      14.8734      0.00000
     60      15.6921      0.00000

 k-point   224 :       0.5000    0.5000    0.5000
  band No.  band energies     occupation 
      1     -16.1648      2.00000
      2     -16.1648      2.00000
      3     -16.1648      2.00000
      4     -16.1648      2.00000
      5     -16.1377      2.00000
      6     -16.1377      2.00000
      7     -16.1377      2.00000
      8     -16.1377      2.00000
      9     -16.1261      2.00000
     10     -16.1261      2.00000
     11     -16.1261      2.00000
     12     -16.1261      2.00000
     13     -16.1038      2.00000
     14     -16.1038      2.00000
     15     -16.1038      2.00000
     16     -16.1038      2.00000
     17     -16.0803      2.00000
     18     -16.0803      2.00000
     19     -16.0803      2.00000
     20     -16.0803      2.00000
     21      -7.2150      2.00000
     22      -7.2150      2.00000
     23      -7.2150      2.00000
     24      -7.2150      2.00000
     25      -1.5299      2.00000
     26      -1.5299      2.00000
     27      -1.5299      2.00000
     28      -1.5299      2.00000
     29       0.7655      2.00000
     30       0.7655      2.00000
     31       0.7655      2.00000
     32       0.7655      2.00000
     33       1.5719      2.00000
     34       1.5719      2.00000
     35       1.5719      2.00000
     36       1.5719      2.00000
     37       3.7105      2.00000
     38       3.7105      2.00000
     39       3.7105      2.00000
     40       3.7105      2.00000
     41       7.5943      0.00000
     42       7.5943      0.00000
     43       7.5943      0.00000
     44       7.5943      0.00000
     45       9.7638      0.00000
     46       9.7638      0.00000
     47       9.7638      0.00000
     48       9.7638      0.00000
     49      11.5817      0.00000
     50      11.5817      0.00000
     51      11.5817      0.00000
     52      11.5817      0.00000
     53      12.1112      0.00000
     54      12.1112      0.00000
     55      12.1112      0.00000
     56      12.1112      0.00000
     57      14.7022      0.00000
     58      14.7026      0.00000
     59      14.7105      0.00000
     60      14.7432      0.00000


--------------------------------------------------------------------------------------------------------


 soft charge-density along one line, spin component           1
         0         1         2         3         4         5         6         7         8         9
 total charge-density along one line

 pseudopotential strength for first ion, spin component:           1
-17.634  -0.000  -0.000   0.015   0.000   3.545   0.000   0.000
 -0.000 -17.621   0.006   0.000  -0.014   0.000   3.539  -0.003
 -0.000   0.006 -17.612   0.000   0.001   0.000  -0.003   3.535
  0.015   0.000   0.000 -17.623  -0.000  -0.007  -0.000  -0.000
  0.000  -0.014   0.001  -0.000 -17.639  -0.000   0.007  -0.000
  3.545   0.000   0.000  -0.007  -0.000   4.173  -0.000  -0.000
  0.000   3.539  -0.003  -0.000   0.007  -0.000   4.176   0.002
  0.000  -0.003   3.535  -0.000  -0.000  -0.000   0.002   4.177
 -0.007  -0.000  -0.000   3.540   0.000   0.003   0.000  -0.000
 -0.000   0.007  -0.000   0.000   3.548  -0.000  -0.003   0.000
  0.000   0.001   0.000  -0.000   0.000  -0.000  -0.002  -0.002
 -0.000  -0.003  -0.002   0.000  -0.000   0.000   0.004   0.003
 -0.000   0.013  -0.006   0.000  -0.011   0.000   0.001   0.000
  0.000   0.011   0.015  -0.000   0.000  -0.000   0.002   0.001
  0.011   0.000   0.000   0.013  -0.000  -0.000  -0.000   0.000
 -0.000   0.020  -0.010   0.000  -0.017   0.000   0.003  -0.000
  0.000   0.017   0.023  -0.000   0.000  -0.000   0.004   0.002
  0.017   0.000   0.000   0.020  -0.000   0.000  -0.000   0.000
 total augmentation occupancy for first ion, spin component:           1
  2.000   0.000   0.000   0.000   0.000   0.000   0.000   0.000   0.000   0.000   0.000   0.000   0.000   0.000   0.000   0.000
  0.000   2.000   0.000   0.000   0.000   0.000   0.000   0.000   0.000   0.000   0.000   0.000   0.000   0.000   0.000   0.000
  0.000   0.000   2.000   0.000   0.000   0.000   0.000   0.000   0.000   0.000   0.000   0.000   0.000   0.000   0.000   0.000
  0.000   0.000   0.000   2.000   0.000   0.000   0.000   0.000   0.000   0.000   0.000   0.000   0.000   0.000   0.000   0.000
  0.000   0.000   0.000   0.000   2.000   0.000   0.000   0.000   0.000   0.000   0.000   0.000   0.000   0.000   0.000   0.000
  0.000   0.000   0.000   0.000   0.000   0.000   0.000   0.000   0.000   0.000   0.000   0.000   0.000   0.000   0.000   0.000
  0.000   0.000   0.000   0.000   0.000   0.000   0.000   0.000   0.000   0.000   0.000   0.000   0.000   0.000   0.000   0.000
  0.000   0.000   0.000   0.000   0.000   0.000   0.000   0.000   0.000   0.000   0.000   0.000   0.000   0.000   0.000   0.000
  0.000   0.000   0.000   0.000   0.000   0.000   0.000   0.000   0.000   0.000   0.000   0.000   0.000   0.000   0.000   0.000
  0.000   0.000   0.000   0.000   0.000   0.000   0.000   0.000   0.000   0.000   0.000   0.000   0.000   0.000   0.000   0.000
  0.000   0.000   0.000   0.000   0.000   0.000   0.000   0.000   0.000   0.000   2.000   0.000   0.000   0.000   0.000   0.000
  0.000   0.000   0.000   0.000   0.000   0.000   0.000   0.000   0.000   0.000   0.000   0.000   0.000   0.000   0.000   0.000
  0.000   0.000   0.000   0.000   0.000   0.000   0.000   0.000   0.000   0.000   0.000   0.000   0.667   0.000   0.000   0.000
  0.000   0.000   0.000   0.000   0.000   0.000   0.000   0.000   0.000   0.000   0.000   0.000   0.000   0.667   0.000   0.000
  0.000   0.000   0.000   0.000   0.000   0.000   0.000   0.000   0.000   0.000   0.000   0.000   0.000   0.000   0.667   0.000
  0.000   0.000   0.000   0.000   0.000   0.000   0.000   0.000   0.000   0.000   0.000   0.000   0.000   0.000   0.000   0.000
  0.000   0.000   0.000   0.000   0.000   0.000   0.000   0.000   0.000   0.000   0.000   0.000   0.000   0.000   0.000   0.000
  0.000   0.000   0.000   0.000   0.000   0.000   0.000   0.000   0.000   0.000   0.000   0.000   0.000   0.000   0.000   0.000


------------------------ aborting loop because EDIFF is reached ----------------------------------------


    CHARGE:  cpu time    2.3181: real time    2.7683
    FORLOC:  cpu time    0.0115: real time    0.0115
    FORNL :  cpu time   16.6892: real time   16.7021
    STRESS:  cpu time   49.9619: real time   50.8558
    FORCOR:  cpu time    0.1266: real time    0.1266
    FORHAR:  cpu time    0.0399: real time    0.0399
    OFIELD:  cpu time    0.0009: real time    0.0008

 ---------------------------------------------------------------------------------------------

         DFTD3 V3.0 Rev 1        
 IVDW         = 11
 DF pbe       
 parameters
 VDW_S6       =    1.0000
 VDW_S8       =    0.7220
 VDW_SR       =    1.2170
 rs18     =    1.0000
 alpha6   =   14.0000
 alpha8   =   16.0000
 k1-k3    =   16.0000    1.3333   -4.0000
 VDW_RADIUS   =   50.2022 A
 VDW_CNRADIUS =   21.1671 A
 Edisp (eV)   -1.76516

 E6    (eV) :    -0.7220
 E8    (eV) :    -1.0431
 % E8        : 59.10
    FORVDW:  cpu time    0.0674: real time    0.0676

  FORCE on cell =-STRESS in cart. coord.  units (eV):
  Direction    XX          YY          ZZ          XY          YZ          ZX
  --------------------------------------------------------------------------------------
  Alpha Z   201.88418   201.88418   201.88418
  Ewald   -1881.36581 -2132.14919 -1906.26902    -0.00000     0.00000     0.00000
  Hartree   860.65210   685.73852   850.76438    -0.00000    -0.00000    -0.00000
  E(xc)    -371.07905  -371.13607  -371.07750    -0.00000     0.00000    -0.00000
  Local    -602.66104  -178.47814  -576.06938     0.00000    -0.00000    -0.00000
  n-local   446.87343   444.56948   450.24338    -0.00000     0.00000     0.00000
  augment   696.43551   696.80617   695.80995    -0.00000     0.00000    -0.00000
  Kinetic   652.09734   653.96134   653.84189    -0.00000    -0.00000     0.00000
  Fock        0.00000     0.00000     0.00000     0.00000     0.00000     0.00000
  vdW        -1.44410    -1.22379    -1.36739    -0.00000    -0.00000    -0.00000
  -------------------------------------------------------------------------------------
  Total       1.39256    -0.02749    -2.23951    -0.00000    -0.00000     0.00000
  in kB      10.19181    -0.20122   -16.39042    -0.00000    -0.00000     0.00000
  external pressure =       -2.13 kB  Pullay stress =        0.00 kB


 VOLUME and BASIS-vectors are now :
 -----------------------------------------------------------------------------
  energy-cutoff  :      600.00
  volume of cell :      218.91
      direct lattice vectors                 reciprocal lattice vectors
     4.168422250  0.000000000  0.000000000     0.239898921 -0.000000000  0.000000000
     0.000000000  4.539670860  0.000000000     0.000000000  0.220280287  0.000000000
     0.000000000  0.000000000 11.568500130    -0.000000000 -0.000000000  0.086441629

  length of vectors
     4.168422250  4.539670860 11.568500130     0.239898921  0.220280287  0.086441629


 FORCES acting on ions
    electron-ion (+dipol)            ewald-force                    non-local-force                 convergence-correction
 -----------------------------------------------------------------------------------------------
   0.279E-12 0.129E+02 0.817E+01   -.141E-13 -.188E+02 -.166E+02   0.117E-14 0.762E+01 0.959E+01   -.227E-12 -.156E+01 -.108E+01
   0.116E-11 -.129E+02 -.817E+01   0.215E-13 0.188E+02 0.166E+02   -.117E-14 -.762E+01 -.959E+01   -.577E-12 0.156E+01 0.108E+01
   0.111E-11 0.129E+02 -.817E+01   0.143E-13 -.188E+02 0.166E+02   0.117E-14 0.762E+01 -.959E+01   -.499E-12 -.156E+01 0.108E+01
   0.369E-12 -.129E+02 0.817E+01   -.931E-15 0.188E+02 -.166E+02   -.117E-14 -.762E+01 0.959E+01   -.228E-11 0.156E+01 -.108E+01
   -.783E-13 -.328E+02 0.287E+02   0.639E-15 0.329E+02 -.295E+02   -.785E-16 -.509E+00 0.105E+01   0.891E-14 0.289E+00 -.209E+00
   -.535E-13 0.328E+02 -.287E+02   -.210E-14 -.329E+02 0.295E+02   0.785E-16 0.509E+00 -.105E+01   -.208E-13 -.289E+00 0.209E+00
   -.683E-13 -.328E+02 -.287E+02   -.333E-14 0.329E+02 0.295E+02   -.785E-16 -.509E+00 -.105E+01   -.178E-14 0.289E+00 0.209E+00
   -.307E-13 0.328E+02 0.287E+02   -.106E-13 -.329E+02 -.295E+02   0.785E-16 0.509E+00 0.105E+01   0.832E-13 -.289E+00 -.209E+00
 -----------------------------------------------------------------------------------------------
   0.269E-11 -.769E-11 0.909E-11   0.536E-14 0.142E-13 0.426E-13   0.200E-22 0.888E-15 0.000E+00   -.351E-11 0.998E-11 -.411E-11


 POSITION                                       TOTAL-FORCE (eV/Angst)
 -----------------------------------------------------------------------------------
      1.04211      0.51020      1.34942         0.000000      0.107984      0.077306
      3.12632      4.02947     10.21908        -0.000000     -0.107984     -0.077306
      3.12632      2.78003      4.43483         0.000000      0.107984     -0.077306
      1.04211      1.75964      7.13367        -0.000000     -0.107984      0.077306
      3.12632      2.35683      1.67866        -0.000000     -0.141477      0.070722
      1.04211      2.18284      9.88984         0.000000      0.141477     -0.070722
      1.04211      0.08700      4.10559        -0.000000     -0.141477     -0.070722
      3.12632      4.45267      7.46291         0.000000      0.141477      0.070722
 -----------------------------------------------------------------------------------
    total drift:                               -0.000000      0.000000      0.000000


--------------------------------------------------------------------------------------------------------



  FREE ENERGIE OF THE ION-ELECTRON SYSTEM (eV)
  ---------------------------------------------------
  free  energy   TOTEN  =       -34.32055186 eV

  energy  without entropy=      -34.32055186  energy(sigma->0) =      -34.32055186



--------------------------------------------------------------------------------------------------------


    POTLOK:  cpu time    0.2782: real time    0.2782


--------------------------------------------------------------------------------------------------------


 writing wavefunctions
     LOOP+:  cpu time  833.4792: real time  841.5008
    4ORBIT:  cpu time    0.0000: real time    0.0000

 total amount of memory used by VASP MPI-rank0   666575. kBytes
=======================================================================

   base      :      30000. kBytes
   nonlr-proj:       3736. kBytes
   fftplans  :      20074. kBytes
   grid      :       9517. kBytes
   one-center:         62. kBytes
   wavefun   :     603186. kBytes

  
  
 General timing and accounting informations for this job:
 ========================================================
  
                  Total CPU time used (sec):      849.759
                            User time (sec):      831.752
                          System time (sec):       18.007
                         Elapsed time (sec):      857.950
  
                   Maximum memory used (kb):      754656.
                   Average memory used (kb):           0.
  
                          Minor page faults:      1976375
                          Major page faults:            0
                 Voluntary context switches:        16481
