<?xml version="1.0" encoding="ISO-8859-1"?>
<modeling>
 <generator>
  <i name="program" type="string">vasp </i>
  <i name="version" type="string">5.4.4.18Apr17-6-g9f103f2a35  </i>
  <i name="subversion" type="string">(build Mar 20 2018 18:01:20) complex            parallel </i>
  <i name="platform" type="string">LinuxGNU </i>
  <i name="date" type="string">2020 04 24 </i>
  <i name="time" type="string">12:02:14 </i>
 </generator>
 <incar>
  <i type="string" name="SYSTEM"> SnSe</i>
  <i type="int" name="ISTART">     1</i>
  <i type="string" name="PREC">accurate</i>
  <i type="string" name="ALGO"> A</i>
  <i type="logical" name="ADDGRID"> T  </i>
  <i type="int" name="ICHARG">    11</i>
  <i name="EDIFF">      0.00000010</i>
  <i name="ENCUT">    600.00000000</i>
  <i type="int" name="NBANDS">    60</i>
  <i type="string" name="LREAL"> Auto</i>
  <i type="logical" name="LPLANE"> T  </i>
  <i type="int" name="ISMEAR">     0</i>
  <i name="SIGMA">      0.05000000</i>
  <i type="int" name="LMAXMIX">     4</i>
  <v type="int" name="KPOINT_BSE">    -1     0     0     0</v>
 </incar>
 <structure name="primitive_cell" >
  <crystal>
   <varray name="basis" >
    <v>       4.16842225       0.00000000       0.00000000 </v>
    <v>       0.00000000       4.53967086       0.00000000 </v>
    <v>       0.00000000       0.00000000      11.56850013 </v>
   </varray>
   <i name="volume">    218.91379385 </i>
   <varray name="rec_basis" >
    <v>       0.23989892      -0.00000000       0.00000000 </v>
    <v>       0.00000000       0.22028029       0.00000000 </v>
    <v>      -0.00000000      -0.00000000       0.08644163 </v>
   </varray>
  </crystal>
  <varray name="positions" >
   <v>       0.25000000       0.11238621       0.11664596 </v>
   <v>       0.25000000       0.01916418       0.35489350 </v>
   <v>      -0.25000000      -0.48083582       0.14510650 </v>
   <v>       0.25000000       0.48083582      -0.14510650 </v>
   <v>      -0.25000000      -0.11238621      -0.11664596 </v>
   <v>      -0.25000000      -0.38761379       0.38335404 </v>
   <v>      -0.25000000      -0.01916418      -0.35489350 </v>
   <v>       0.25000000       0.38761379      -0.38335404 </v>
  </varray>
 </structure>
 <varray name="primitive_index" >
  <v type="int" >        1 </v>
  <v type="int" >        7 </v>
  <v type="int" >        5 </v>
  <v type="int" >        6 </v>
  <v type="int" >        2 </v>
  <v type="int" >        3 </v>
  <v type="int" >        8 </v>
  <v type="int" >        4 </v>
 </varray>
 <kpoints>
  <varray name="kpointlist" >
   <v>       0.00000000       0.00000000       0.00000000 </v>
   <v>       0.02173913       0.00000000       0.00000000 </v>
   <v>       0.04347826       0.00000000       0.00000000 </v>
   <v>       0.06521739       0.00000000       0.00000000 </v>
   <v>       0.08695652       0.00000000       0.00000000 </v>
   <v>       0.10869565       0.00000000       0.00000000 </v>
   <v>       0.13043478       0.00000000       0.00000000 </v>
   <v>       0.15217391       0.00000000       0.00000000 </v>
   <v>       0.17391304       0.00000000       0.00000000 </v>
   <v>       0.19565217       0.00000000       0.00000000 </v>
   <v>       0.21739130       0.00000000       0.00000000 </v>
   <v>       0.23913043       0.00000000       0.00000000 </v>
   <v>       0.26086957       0.00000000       0.00000000 </v>
   <v>       0.28260870       0.00000000       0.00000000 </v>
   <v>       0.30434783       0.00000000       0.00000000 </v>
   <v>       0.32608696       0.00000000       0.00000000 </v>
   <v>       0.34782609       0.00000000       0.00000000 </v>
   <v>       0.36956522       0.00000000       0.00000000 </v>
   <v>       0.39130435       0.00000000       0.00000000 </v>
   <v>       0.41304348       0.00000000       0.00000000 </v>
   <v>       0.43478261       0.00000000       0.00000000 </v>
   <v>       0.45652174       0.00000000       0.00000000 </v>
   <v>       0.47826087       0.00000000       0.00000000 </v>
   <v>       0.50000000       0.00000000       0.00000000 </v>
   <v>       0.50000000       0.00000000       0.00000000 </v>
   <v>       0.50000000       0.02380952       0.00000000 </v>
   <v>       0.50000000       0.04761905       0.00000000 </v>
   <v>       0.50000000       0.07142857       0.00000000 </v>
   <v>       0.50000000       0.09523810       0.00000000 </v>
   <v>       0.50000000       0.11904762       0.00000000 </v>
   <v>       0.50000000       0.14285714       0.00000000 </v>
   <v>       0.50000000       0.16666667       0.00000000 </v>
   <v>       0.50000000       0.19047619       0.00000000 </v>
   <v>       0.50000000       0.21428571       0.00000000 </v>
   <v>       0.50000000       0.23809524       0.00000000 </v>
   <v>       0.50000000       0.26190476       0.00000000 </v>
   <v>       0.50000000       0.28571429       0.00000000 </v>
   <v>       0.50000000       0.30952381       0.00000000 </v>
   <v>       0.50000000       0.33333333       0.00000000 </v>
   <v>       0.50000000       0.35714286       0.00000000 </v>
   <v>       0.50000000       0.38095238       0.00000000 </v>
   <v>       0.50000000       0.40476190       0.00000000 </v>
   <v>       0.50000000       0.42857143       0.00000000 </v>
   <v>       0.50000000       0.45238095       0.00000000 </v>
   <v>       0.50000000       0.47619048       0.00000000 </v>
   <v>       0.50000000       0.50000000       0.00000000 </v>
   <v>       0.50000000       0.50000000       0.00000000 </v>
   <v>       0.47826087       0.50000000       0.00000000 </v>
   <v>       0.45652174       0.50000000       0.00000000 </v>
   <v>       0.43478261       0.50000000       0.00000000 </v>
   <v>       0.41304348       0.50000000       0.00000000 </v>
   <v>       0.39130435       0.50000000       0.00000000 </v>
   <v>       0.36956522       0.50000000       0.00000000 </v>
   <v>       0.34782609       0.50000000       0.00000000 </v>
   <v>       0.32608696       0.50000000       0.00000000 </v>
   <v>       0.30434783       0.50000000       0.00000000 </v>
   <v>       0.28260870       0.50000000       0.00000000 </v>
   <v>       0.26086957       0.50000000       0.00000000 </v>
   <v>       0.23913043       0.50000000       0.00000000 </v>
   <v>       0.21739130       0.50000000       0.00000000 </v>
   <v>       0.19565217       0.50000000       0.00000000 </v>
   <v>       0.17391304       0.50000000       0.00000000 </v>
   <v>       0.15217391       0.50000000       0.00000000 </v>
   <v>       0.13043478       0.50000000       0.00000000 </v>
   <v>       0.10869565       0.50000000       0.00000000 </v>
   <v>       0.08695652       0.50000000       0.00000000 </v>
   <v>       0.06521739       0.50000000       0.00000000 </v>
   <v>       0.04347826       0.50000000       0.00000000 </v>
   <v>       0.02173913       0.50000000       0.00000000 </v>
   <v>       0.00000000       0.50000000       0.00000000 </v>
   <v>       0.00000000       0.50000000       0.00000000 </v>
   <v>       0.00000000       0.47619048       0.00000000 </v>
   <v>       0.00000000       0.45238095       0.00000000 </v>
   <v>       0.00000000       0.42857143       0.00000000 </v>
   <v>       0.00000000       0.40476190       0.00000000 </v>
   <v>       0.00000000       0.38095238       0.00000000 </v>
   <v>       0.00000000       0.35714286       0.00000000 </v>
   <v>       0.00000000       0.33333333       0.00000000 </v>
   <v>       0.00000000       0.30952381       0.00000000 </v>
   <v>       0.00000000       0.28571429       0.00000000 </v>
   <v>       0.00000000       0.26190476       0.00000000 </v>
   <v>       0.00000000       0.23809524       0.00000000 </v>
   <v>       0.00000000       0.21428571       0.00000000 </v>
   <v>       0.00000000       0.19047619       0.00000000 </v>
   <v>       0.00000000       0.16666667       0.00000000 </v>
   <v>       0.00000000       0.14285714       0.00000000 </v>
   <v>       0.00000000       0.11904762       0.00000000 </v>
   <v>       0.00000000       0.09523810       0.00000000 </v>
   <v>       0.00000000       0.07142857       0.00000000 </v>
   <v>       0.00000000       0.04761905       0.00000000 </v>
   <v>       0.00000000       0.02380952       0.00000000 </v>
   <v>       0.00000000       0.00000000       0.00000000 </v>
   <v>       0.00000000       0.00000000       0.00000000 </v>
   <v>       0.00000000       0.00000000       0.05555556 </v>
   <v>       0.00000000       0.00000000       0.11111111 </v>
   <v>       0.00000000       0.00000000       0.16666667 </v>
   <v>       0.00000000       0.00000000       0.22222222 </v>
   <v>      -0.00000000      -0.00000000       0.27777778 </v>
   <v>       0.00000000       0.00000000       0.33333333 </v>
   <v>       0.00000000      -0.00000000       0.38888889 </v>
   <v>       0.00000000       0.00000000       0.44444444 </v>
   <v>       0.00000000       0.00000000       0.50000000 </v>
   <v>       0.00000000       0.00000000       0.50000000 </v>
   <v>       0.02173913       0.00000000       0.50000000 </v>
   <v>       0.04347826       0.00000000       0.50000000 </v>
   <v>       0.06521739       0.00000000       0.50000000 </v>
   <v>       0.08695652       0.00000000       0.50000000 </v>
   <v>       0.10869565      -0.00000000       0.50000000 </v>
   <v>       0.13043478       0.00000000       0.50000000 </v>
   <v>       0.15217391      -0.00000000       0.50000000 </v>
   <v>       0.17391304       0.00000000       0.50000000 </v>
   <v>       0.19565217       0.00000000       0.50000000 </v>
   <v>       0.21739130       0.00000000       0.50000000 </v>
   <v>       0.23913043       0.00000000       0.50000000 </v>
   <v>       0.26086957       0.00000000       0.50000000 </v>
   <v>       0.28260870       0.00000000       0.50000000 </v>
   <v>       0.30434783       0.00000000       0.50000000 </v>
   <v>       0.32608696       0.00000000       0.50000000 </v>
   <v>       0.34782609       0.00000000       0.50000000 </v>
   <v>       0.36956522       0.00000000       0.50000000 </v>
   <v>       0.39130435      -0.00000000       0.50000000 </v>
   <v>       0.41304348      -0.00000000       0.50000000 </v>
   <v>       0.43478261      -0.00000000       0.50000000 </v>
   <v>       0.45652174      -0.00000000       0.50000000 </v>
   <v>       0.47826087       0.00000000       0.50000000 </v>
   <v>       0.50000000       0.00000000       0.50000000 </v>
   <v>       0.50000000       0.00000000       0.50000000 </v>
   <v>       0.50000000       0.02380952       0.50000000 </v>
   <v>       0.50000000       0.04761905       0.50000000 </v>
   <v>       0.50000000       0.07142857       0.50000000 </v>
   <v>       0.50000000       0.09523810       0.50000000 </v>
   <v>       0.50000000       0.11904762       0.50000000 </v>
   <v>       0.50000000       0.14285714       0.50000000 </v>
   <v>       0.50000000       0.16666667       0.50000000 </v>
   <v>       0.50000000       0.19047619       0.50000000 </v>
   <v>       0.50000000       0.21428571       0.50000000 </v>
   <v>       0.50000000       0.23809524       0.50000000 </v>
   <v>       0.50000000       0.26190476       0.50000000 </v>
   <v>       0.50000000       0.28571429       0.50000000 </v>
   <v>       0.50000000       0.30952381       0.50000000 </v>
   <v>       0.50000000       0.33333333       0.50000000 </v>
   <v>       0.50000000       0.35714286       0.50000000 </v>
   <v>       0.50000000       0.38095238       0.50000000 </v>
   <v>       0.50000000       0.40476190       0.50000000 </v>
   <v>       0.50000000       0.42857143       0.50000000 </v>
   <v>       0.50000000       0.45238095       0.50000000 </v>
   <v>       0.50000000       0.47619048       0.50000000 </v>
   <v>       0.50000000       0.50000000       0.50000000 </v>
   <v>       0.50000000       0.50000000       0.50000000 </v>
   <v>       0.47826087       0.50000000       0.50000000 </v>
   <v>       0.45652174       0.50000000       0.50000000 </v>
   <v>       0.43478261       0.50000000       0.50000000 </v>
   <v>       0.41304348       0.50000000       0.50000000 </v>
   <v>       0.39130435       0.50000000       0.50000000 </v>
   <v>       0.36956522       0.50000000       0.50000000 </v>
   <v>       0.34782609       0.50000000       0.50000000 </v>
   <v>       0.32608696       0.50000000       0.50000000 </v>
   <v>       0.30434783       0.50000000       0.50000000 </v>
   <v>       0.28260870       0.50000000       0.50000000 </v>
   <v>       0.26086957       0.50000000       0.50000000 </v>
   <v>       0.23913043       0.50000000       0.50000000 </v>
   <v>       0.21739130       0.50000000       0.50000000 </v>
   <v>       0.19565217       0.50000000       0.50000000 </v>
   <v>       0.17391304       0.50000000       0.50000000 </v>
   <v>       0.15217391       0.50000000       0.50000000 </v>
   <v>       0.13043478       0.50000000       0.50000000 </v>
   <v>       0.10869565       0.50000000       0.50000000 </v>
   <v>       0.08695652       0.50000000       0.50000000 </v>
   <v>       0.06521739       0.50000000       0.50000000 </v>
   <v>       0.04347826       0.50000000       0.50000000 </v>
   <v>       0.02173913       0.50000000       0.50000000 </v>
   <v>       0.00000000       0.50000000       0.50000000 </v>
   <v>       0.00000000       0.50000000       0.50000000 </v>
   <v>       0.00000000       0.47619048       0.50000000 </v>
   <v>       0.00000000       0.45238095       0.50000000 </v>
   <v>       0.00000000       0.42857143       0.50000000 </v>
   <v>       0.00000000       0.40476190       0.50000000 </v>
   <v>       0.00000000       0.38095238       0.50000000 </v>
   <v>       0.00000000       0.35714286       0.50000000 </v>
   <v>       0.00000000       0.33333333       0.50000000 </v>
   <v>       0.00000000       0.30952381       0.50000000 </v>
   <v>       0.00000000       0.28571429       0.50000000 </v>
   <v>       0.00000000       0.26190476       0.50000000 </v>
   <v>       0.00000000       0.23809524       0.50000000 </v>
   <v>       0.00000000       0.21428571       0.50000000 </v>
   <v>       0.00000000       0.19047619       0.50000000 </v>
   <v>       0.00000000       0.16666667       0.50000000 </v>
   <v>       0.00000000       0.14285714       0.50000000 </v>
   <v>       0.00000000       0.11904762       0.50000000 </v>
   <v>       0.00000000       0.09523810       0.50000000 </v>
   <v>       0.00000000       0.07142857       0.50000000 </v>
   <v>       0.00000000       0.04761905       0.50000000 </v>
   <v>       0.00000000       0.02380952       0.50000000 </v>
   <v>       0.00000000       0.00000000       0.50000000 </v>
   <v>       0.00000000       0.50000000       0.00000000 </v>
   <v>       0.00000000       0.50000000       0.05555556 </v>
   <v>       0.00000000       0.50000000       0.11111111 </v>
   <v>       0.00000000       0.50000000       0.16666667 </v>
   <v>       0.00000000       0.50000000       0.22222222 </v>
   <v>      -0.00000000       0.50000000       0.27777778 </v>
   <v>       0.00000000       0.50000000       0.33333333 </v>
   <v>       0.00000000       0.50000000       0.38888889 </v>
   <v>       0.00000000       0.50000000       0.44444444 </v>
   <v>       0.00000000       0.50000000       0.50000000 </v>
   <v>       0.50000000       0.00000000       0.50000000 </v>
   <v>       0.50000000       0.00000000       0.44444444 </v>
   <v>       0.50000000       0.00000000       0.38888889 </v>
   <v>       0.50000000       0.00000000       0.33333333 </v>
   <v>       0.50000000       0.00000000       0.27777778 </v>
   <v>       0.50000000       0.00000000       0.22222222 </v>
   <v>       0.50000000       0.00000000       0.16666667 </v>
   <v>       0.50000000      -0.00000000       0.11111111 </v>
   <v>       0.50000000       0.00000000       0.05555556 </v>
   <v>       0.50000000       0.00000000       0.00000000 </v>
   <v>       0.50000000       0.50000000       0.00000000 </v>
   <v>       0.50000000       0.50000000       0.05555556 </v>
   <v>       0.50000000       0.50000000       0.11111111 </v>
   <v>       0.50000000       0.50000000       0.16666667 </v>
   <v>       0.50000000       0.50000000       0.22222222 </v>
   <v>       0.50000000       0.50000000       0.27777778 </v>
   <v>       0.50000000       0.50000000       0.33333333 </v>
   <v>       0.50000000       0.50000000       0.38888889 </v>
   <v>       0.50000000       0.50000000       0.44444444 </v>
   <v>       0.50000000       0.50000000       0.50000000 </v>
  </varray>
  <varray name="weights" >
   <v>       0.00446429 </v>
   <v>       0.00446429 </v>
   <v>       0.00446429 </v>
   <v>       0.00446429 </v>
   <v>       0.00446429 </v>
   <v>       0.00446429 </v>
   <v>       0.00446429 </v>
   <v>       0.00446429 </v>
   <v>       0.00446429 </v>
   <v>       0.00446429 </v>
   <v>       0.00446429 </v>
   <v>       0.00446429 </v>
   <v>       0.00446429 </v>
   <v>       0.00446429 </v>
   <v>       0.00446429 </v>
   <v>       0.00446429 </v>
   <v>       0.00446429 </v>
   <v>       0.00446429 </v>
   <v>       0.00446429 </v>
   <v>       0.00446429 </v>
   <v>       0.00446429 </v>
   <v>       0.00446429 </v>
   <v>       0.00446429 </v>
   <v>       0.00446429 </v>
   <v>       0.00446429 </v>
   <v>       0.00446429 </v>
   <v>       0.00446429 </v>
   <v>       0.00446429 </v>
   <v>       0.00446429 </v>
   <v>       0.00446429 </v>
   <v>       0.00446429 </v>
   <v>       0.00446429 </v>
   <v>       0.00446429 </v>
   <v>       0.00446429 </v>
   <v>       0.00446429 </v>
   <v>       0.00446429 </v>
   <v>       0.00446429 </v>
   <v>       0.00446429 </v>
   <v>       0.00446429 </v>
   <v>       0.00446429 </v>
   <v>       0.00446429 </v>
   <v>       0.00446429 </v>
   <v>       0.00446429 </v>
   <v>       0.00446429 </v>
   <v>       0.00446429 </v>
   <v>       0.00446429 </v>
   <v>       0.00446429 </v>
   <v>       0.00446429 </v>
   <v>       0.00446429 </v>
   <v>       0.00446429 </v>
   <v>       0.00446429 </v>
   <v>       0.00446429 </v>
   <v>       0.00446429 </v>
   <v>       0.00446429 </v>
   <v>       0.00446429 </v>
   <v>       0.00446429 </v>
   <v>       0.00446429 </v>
   <v>       0.00446429 </v>
   <v>       0.00446429 </v>
   <v>       0.00446429 </v>
   <v>       0.00446429 </v>
   <v>       0.00446429 </v>
   <v>       0.00446429 </v>
   <v>       0.00446429 </v>
   <v>       0.00446429 </v>
   <v>       0.00446429 </v>
   <v>       0.00446429 </v>
   <v>       0.00446429 </v>
   <v>       0.00446429 </v>
   <v>       0.00446429 </v>
   <v>       0.00446429 </v>
   <v>       0.00446429 </v>
   <v>       0.00446429 </v>
   <v>       0.00446429 </v>
   <v>       0.00446429 </v>
   <v>       0.00446429 </v>
   <v>       0.00446429 </v>
   <v>       0.00446429 </v>
   <v>       0.00446429 </v>
   <v>       0.00446429 </v>
   <v>       0.00446429 </v>
   <v>       0.00446429 </v>
   <v>       0.00446429 </v>
   <v>       0.00446429 </v>
   <v>       0.00446429 </v>
   <v>       0.00446429 </v>
   <v>       0.00446429 </v>
   <v>       0.00446429 </v>
   <v>       0.00446429 </v>
   <v>       0.00446429 </v>
   <v>       0.00446429 </v>
   <v>       0.00446429 </v>
   <v>       0.00446429 </v>
   <v>       0.00446429 </v>
   <v>       0.00446429 </v>
   <v>       0.00446429 </v>
   <v>       0.00446429 </v>
   <v>       0.00446429 </v>
   <v>       0.00446429 </v>
   <v>       0.00446429 </v>
   <v>       0.00446429 </v>
   <v>       0.00446429 </v>
   <v>       0.00446429 </v>
   <v>       0.00446429 </v>
   <v>       0.00446429 </v>
   <v>       0.00446429 </v>
   <v>       0.00446429 </v>
   <v>       0.00446429 </v>
   <v>       0.00446429 </v>
   <v>       0.00446429 </v>
   <v>       0.00446429 </v>
   <v>       0.00446429 </v>
   <v>       0.00446429 </v>
   <v>       0.00446429 </v>
   <v>       0.00446429 </v>
   <v>       0.00446429 </v>
   <v>       0.00446429 </v>
   <v>       0.00446429 </v>
   <v>       0.00446429 </v>
   <v>       0.00446429 </v>
   <v>       0.00446429 </v>
   <v>       0.00446429 </v>
   <v>       0.00446429 </v>
   <v>       0.00446429 </v>
   <v>       0.00446429 </v>
   <v>       0.00446429 </v>
   <v>       0.00446429 </v>
   <v>       0.00446429 </v>
   <v>       0.00446429 </v>
   <v>       0.00446429 </v>
   <v>       0.00446429 </v>
   <v>       0.00446429 </v>
   <v>       0.00446429 </v>
   <v>       0.00446429 </v>
   <v>       0.00446429 </v>
   <v>       0.00446429 </v>
   <v>       0.00446429 </v>
   <v>       0.00446429 </v>
   <v>       0.00446429 </v>
   <v>       0.00446429 </v>
   <v>       0.00446429 </v>
   <v>       0.00446429 </v>
   <v>       0.00446429 </v>
   <v>       0.00446429 </v>
   <v>       0.00446429 </v>
   <v>       0.00446429 </v>
   <v>       0.00446429 </v>
   <v>       0.00446429 </v>
   <v>       0.00446429 </v>
   <v>       0.00446429 </v>
   <v>       0.00446429 </v>
   <v>       0.00446429 </v>
   <v>       0.00446429 </v>
   <v>       0.00446429 </v>
   <v>       0.00446429 </v>
   <v>       0.00446429 </v>
   <v>       0.00446429 </v>
   <v>       0.00446429 </v>
   <v>       0.00446429 </v>
   <v>       0.00446429 </v>
   <v>       0.00446429 </v>
   <v>       0.00446429 </v>
   <v>       0.00446429 </v>
   <v>       0.00446429 </v>
   <v>       0.00446429 </v>
   <v>       0.00446429 </v>
   <v>       0.00446429 </v>
   <v>       0.00446429 </v>
   <v>       0.00446429 </v>
   <v>       0.00446429 </v>
   <v>       0.00446429 </v>
   <v>       0.00446429 </v>
   <v>       0.00446429 </v>
   <v>       0.00446429 </v>
   <v>       0.00446429 </v>
   <v>       0.00446429 </v>
   <v>       0.00446429 </v>
   <v>       0.00446429 </v>
   <v>       0.00446429 </v>
   <v>       0.00446429 </v>
   <v>       0.00446429 </v>
   <v>       0.00446429 </v>
   <v>       0.00446429 </v>
   <v>       0.00446429 </v>
   <v>       0.00446429 </v>
   <v>       0.00446429 </v>
   <v>       0.00446429 </v>
   <v>       0.00446429 </v>
   <v>       0.00446429 </v>
   <v>       0.00446429 </v>
   <v>       0.00446429 </v>
   <v>       0.00446429 </v>
   <v>       0.00446429 </v>
   <v>       0.00446429 </v>
   <v>       0.00446429 </v>
   <v>       0.00446429 </v>
   <v>       0.00446429 </v>
   <v>       0.00446429 </v>
   <v>       0.00446429 </v>
   <v>       0.00446429 </v>
   <v>       0.00446429 </v>
   <v>       0.00446429 </v>
   <v>       0.00446429 </v>
   <v>       0.00446429 </v>
   <v>       0.00446429 </v>
   <v>       0.00446429 </v>
   <v>       0.00446429 </v>
   <v>       0.00446429 </v>
   <v>       0.00446429 </v>
   <v>       0.00446429 </v>
   <v>       0.00446429 </v>
   <v>       0.00446429 </v>
   <v>       0.00446429 </v>
   <v>       0.00446429 </v>
   <v>       0.00446429 </v>
   <v>       0.00446429 </v>
   <v>       0.00446429 </v>
   <v>       0.00446429 </v>
   <v>       0.00446429 </v>
   <v>       0.00446429 </v>
   <v>       0.00446429 </v>
   <v>       0.00446429 </v>
   <v>       0.00446429 </v>
   <v>       0.00446429 </v>
  </varray>
 </kpoints>
 <parameters>
  <separator name="general" >
   <i type="string" name="SYSTEM">SnSe</i>
   <i type="logical" name="LCOMPAT"> F  </i>
  </separator>
  <separator name="electronic" >
   <i type="string" name="PREC">accura</i>
   <i name="ENMAX">    600.00000000</i>
   <i name="ENAUG">    446.84200000</i>
   <i name="EDIFF">      0.00000010</i>
   <i type="int" name="IALGO">    58</i>
   <i type="int" name="IWAVPR">    10</i>
   <i type="int" name="NBANDS">    60</i>
   <i name="NELECT">     80.00000000</i>
   <i type="int" name="TURBO">     0</i>
   <i type="int" name="IRESTART">     0</i>
   <i type="int" name="NREBOOT">     0</i>
   <i type="int" name="NMIN">     0</i>
   <i name="EREF">      0.00000000</i>
   <separator name="electronic smearing" >
    <i type="int" name="ISMEAR">     0</i>
    <i name="SIGMA">      0.05000000</i>
    <i name="KSPACING">      0.50000000</i>
    <i type="logical" name="KGAMMA"> T  </i>
   </separator>
   <separator name="electronic projectors" >
    <i type="logical" name="LREAL"> T  </i>
    <v name="ROPT">     -0.00025000     -0.00025000</v>
    <i type="int" name="LMAXPAW">  -100</i>
    <i type="int" name="LMAXMIX">     4</i>
    <i type="logical" name="NLSPLINE"> F  </i>
   </separator>
   <separator name="electronic startup" >
    <i type="int" name="ISTART">     0</i>
    <i type="int" name="ICHARG">    11</i>
    <i type="int" name="INIWAV">     1</i>
   </separator>
   <separator name="electronic spin" >
    <i type="int" name="ISPIN">     1</i>
    <i type="logical" name="LNONCOLLINEAR"> F  </i>
    <v name="MAGMOM">      1.00000000      1.00000000      1.00000000      1.00000000      1.00000000      1.00000000      1.00000000      1.00000000</v>
    <i name="NUPDOWN">     -1.00000000</i>
    <i type="logical" name="LSORBIT"> F  </i>
    <v name="SAXIS">      0.00000000      0.00000000      1.00000000</v>
    <i type="logical" name="LSPIRAL"> F  </i>
    <v name="QSPIRAL">      0.00000000      0.00000000      0.00000000</v>
    <i type="logical" name="LZEROZ"> F  </i>
   </separator>
   <separator name="electronic exchange-correlation" >
    <i type="logical" name="LASPH"> F  </i>
    <i type="logical" name="LMETAGGA"> F  </i>
   </separator>
   <separator name="electronic convergence" >
    <i type="int" name="NELM">    60</i>
    <i type="int" name="NELMDL">     0</i>
    <i type="int" name="NELMIN">     2</i>
    <i name="ENINI">    600.00000000</i>
    <separator name="electronic convergence detail" >
     <i type="logical" name="LDIAG"> T  </i>
     <i type="logical" name="LSUBROT"> F  </i>
     <i name="WEIMIN">      0.00000000</i>
     <i name="EBREAK">      0.00000000</i>
     <i name="DEPER">      0.30000000</i>
     <i type="int" name="NRMM">     4</i>
     <i name="TIME">      0.40000000</i>
    </separator>
   </separator>
   <separator name="electronic mixer" >
    <i name="AMIX">      0.40000000</i>
    <i name="BMIX">      1.00000000</i>
    <i name="AMIN">      0.10000000</i>
    <i name="AMIX_MAG">      1.60000000</i>
    <i name="BMIX_MAG">      1.00000000</i>
    <separator name="electronic mixer details" >
     <i type="int" name="IMIX">     4</i>
     <i type="logical" name="MIXFIRST"> F  </i>
     <i type="int" name="MAXMIX">   -45</i>
     <i name="WC">    100.00000000</i>
     <i type="int" name="INIMIX">     1</i>
     <i type="int" name="MIXPRE">     1</i>
     <i type="int" name="MREMOVE">     5</i>
    </separator>
   </separator>
   <separator name="electronic dipolcorrection" >
    <i type="logical" name="LDIPOL"> F  </i>
    <i type="logical" name="LMONO"> F  </i>
    <i type="int" name="IDIPOL">     0</i>
    <i name="EPSILON">      1.00000000</i>
    <v name="DIPOL">   -100.00000000   -100.00000000   -100.00000000</v>
    <i name="EFIELD">      0.00000000</i>
   </separator>
  </separator>
  <separator name="grids" >
   <i type="int" name="NGX">    36</i>
   <i type="int" name="NGY">    36</i>
   <i type="int" name="NGZ">    96</i>
   <i type="int" name="NGXF">    72</i>
   <i type="int" name="NGYF">    72</i>
   <i type="int" name="NGZF">   192</i>
   <i type="logical" name="ADDGRID"> T  </i>
  </separator>
  <separator name="ionic" >
   <i type="int" name="NSW">     0</i>
   <i type="int" name="IBRION">    -1</i>
   <i type="int" name="MDALGO">     0</i>
   <i type="int" name="ISIF">     2</i>
   <i name="PSTRESS">      0.00000000</i>
   <i name="EDIFFG">      0.00000100</i>
   <i type="int" name="NFREE">     0</i>
   <i name="POTIM">      0.50000000</i>
   <i name="SMASS">     -3.00000000</i>
   <i name="SCALEE">      1.00000000</i>
  </separator>
  <separator name="ionic md" >
   <i name="TEBEG">      0.00010000</i>
   <i name="TEEND">      0.00010000</i>
   <i type="int" name="NBLOCK">     1</i>
   <i type="int" name="KBLOCK">     1</i>
   <i type="int" name="NPACO">   256</i>
   <i name="APACO">     16.00000000</i>
  </separator>
  <separator name="symmetry" >
   <i type="int" name="ISYM">     2</i>
   <i name="SYMPREC">      0.00001000</i>
  </separator>
  <separator name="dos" >
   <i type="int" name="LORBIT">     0</i>
   <v name="RWIGS">     -1.00000000     -1.00000000</v>
   <i type="int" name="NEDOS">   301</i>
   <i name="EMIN">     10.00000000</i>
   <i name="EMAX">    -10.00000000</i>
   <i name="EFERMI">      0.00000000</i>
  </separator>
  <separator name="writing" >
   <i type="int" name="NWRITE">     2</i>
   <i type="logical" name="LWAVE"> T  </i>
   <i type="logical" name="LDOWNSAMPLE"> F  </i>
   <i type="logical" name="LCHARG"> T  </i>
   <i type="logical" name="LPARD"> F  </i>
   <i type="logical" name="LVTOT"> F  </i>
   <i type="logical" name="LVHAR"> F  </i>
   <i type="logical" name="LELF"> F  </i>
   <i type="logical" name="LOPTICS"> F  </i>
   <v name="STM">      0.00000000      0.00000000      0.00000000      0.00000000      0.00000000      0.00000000      0.00000000</v>
  </separator>
  <separator name="performance" >
   <i type="int" name="NPAR">     4</i>
   <i type="int" name="NSIM">     4</i>
   <i type="int" name="NBLK">    -1</i>
   <i type="logical" name="LPLANE"> T  </i>
   <i type="logical" name="LSCALAPACK"> T  </i>
   <i type="logical" name="LSCAAWARE"> F  </i>
   <i type="logical" name="LSCALU"> F  </i>
   <i type="logical" name="LASYNC"> F  </i>
   <i type="logical" name="LORBITALREAL"> F  </i>
  </separator>
  <separator name="miscellaneous" >
   <i type="int" name="IDIOT">     3</i>
   <i type="int" name="ISPECIAL">     0</i>
   <i type="logical" name="LMUSIC"> F  </i>
   <v name="POMASS">    118.71000000     78.96000000</v>
   <v name="DARWINR">      0.00000000      0.00000000</v>
   <v name="DARWINV">      1.00000000      1.00000000</v>
   <i type="logical" name="LCORR"> T  </i>
  </separator>
  <i type="logical" name="GGA_COMPAT"> T  </i>
  <i type="logical" name="LBERRY"> F  </i>
  <i type="int" name="ICORELEVEL">     0</i>
  <i type="logical" name="LDAU"> F  </i>
  <i type="int" name="I_CONSTRAINED_M">     0</i>
  <separator name="electronic exchange-correlation" >
   <i type="string" name="GGA">--</i>
   <i type="int" name="VOSKOWN">     0</i>
   <i type="logical" name="LHFCALC"> F  </i>
   <i type="string" name="PRECFOCK"></i>
   <i type="logical" name="LSYMGRAD"> F  </i>
   <i type="logical" name="LHFONE"> F  </i>
   <i type="logical" name="LRHFCALC"> F  </i>
   <i type="logical" name="LTHOMAS"> F  </i>
   <i type="logical" name="LMODELHF"> F  </i>
   <i name="ENCUT4O">     -1.00000000</i>
   <i type="int" name="EXXOEP">     0</i>
   <i type="int" name="FOURORBIT">     0</i>
   <i name="AEXX">      0.00000000</i>
   <i name="HFALPHA">      0.00000000</i>
   <i name="MCALPHA">      0.00000000</i>
   <i name="ALDAX">      1.00000000</i>
   <i name="AGGAX">      1.00000000</i>
   <i name="ALDAC">      1.00000000</i>
   <i name="AGGAC">      1.00000000</i>
   <i type="int" name="NKREDX">     1</i>
   <i type="int" name="NKREDY">     1</i>
   <i type="int" name="NKREDZ">     1</i>
   <i type="logical" name="SHIFTRED"> F  </i>
   <i type="logical" name="ODDONLY"> F  </i>
   <i type="logical" name="EVENONLY"> F  </i>
   <i type="int" name="LMAXFOCK">     0</i>
   <i type="int" name="NMAXFOCKAE">     0</i>
   <i type="logical" name="LFOCKAEDFT"> F  </i>
   <i name="HFSCREEN">      0.00000000</i>
   <i name="HFSCREENC">      0.00000000</i>
   <i type="int" name="NBANDSGWLOW">     0</i>
  </separator>
  <separator name="vdW DFT" >
   <i type="logical" name="LUSE_VDW"> F  </i>
   <i name="Zab_VDW">     -0.84910000</i>
   <i name="PARAM1">      0.12340000</i>
   <i name="PARAM2">      1.00000000</i>
   <i name="PARAM3">      0.00000000</i>
  </separator>
  <separator name="model GW" >
   <i type="int" name="MODEL_GW">     0</i>
   <i name="MODEL_EPS0">     16.41853454</i>
   <i name="MODEL_ALPHA">      1.00000000</i>
  </separator>
  <separator name="linear response parameters" >
   <i type="logical" name="LEPSILON"> F  </i>
   <i type="logical" name="LRPA"> F  </i>
   <i type="logical" name="LNABLA"> F  </i>
   <i type="logical" name="LVEL"> F  </i>
   <i type="int" name="KINTER">     0</i>
   <i name="CSHIFT">      0.10000000</i>
   <i name="OMEGAMAX">     -1.00000000</i>
   <i name="DEG_THRESHOLD">      0.00200000</i>
   <i name="RTIME">     -0.10000000</i>
   <i name="WPLASMAI">      0.00000000</i>
   <v name="DFIELD">      0.00000000      0.00000000      0.00000000</v>
   <v name="WPLASMA">      0.00000000      0.00000000      0.00000000      0.00000000      0.00000000      0.00000000      0.00000000      0.00000000      0.00000000</v>
  </separator>
  <separator name="orbital magnetization" >
   <i type="logical" name="NUCIND"> F  </i>
   <v name="MAGPOS">      0.00000000      0.00000000      0.00000000</v>
   <i type="logical" name="LNICSALL"> T  </i>
   <i type="logical" name="ORBITALMAG"> F  </i>
   <i type="logical" name="LMAGBLOCH"> F  </i>
   <i type="logical" name="LCHIMAG"> F  </i>
   <i type="logical" name="LGAUGE"> T  </i>
   <i type="int" name="MAGATOM">     0</i>
   <v name="MAGDIPOL">      0.00000000      0.00000000      0.00000000</v>
   <v name="AVECCONST">      0.00000000      0.00000000      0.00000000</v>
  </separator>
  <separator name="response functions" >
   <i type="logical" name="LADDER"> F  </i>
   <i type="logical" name="LRPAFORCE"> F  </i>
   <i type="logical" name="LFXC"> F  </i>
   <i type="logical" name="LHARTREE"> T  </i>
   <i type="int" name="IBSE">     0</i>
   <v type="int" name="KPOINT">    -1     0     0     0</v>
   <i type="logical" name="LTCTE"> F  </i>
   <i type="logical" name="LTETE"> F  </i>
   <i type="logical" name="LTRIPLET"> F  </i>
   <i type="logical" name="LFXCEPS"> F  </i>
   <i type="logical" name="LFXHEG"> F  </i>
   <i type="int" name="NATURALO">     2</i>
   <i type="logical" name="L2ORDER"> F  </i>
   <i type="logical" name="LMP2LT"> F  </i>
   <i type="logical" name="LUSEW"> F  </i>
   <i name="ENCUTGW">     -2.00000000</i>
   <i name="ENCUTGWSOFT">     -2.00000000</i>
   <i name="ENCUTLF">     -1.00000000</i>
   <i type="int" name="LMAXMP2">    -1</i>
   <i name="SCISSOR">      0.00000000</i>
   <i type="int" name="NOMEGA">     0</i>
   <i type="int" name="NOMEGAR">     0</i>
   <i type="int" name="NBANDSGW">    -1</i>
   <i type="int" name="NBANDSO">    -1</i>
   <i type="int" name="NBANDSV">    -1</i>
   <i type="int" name="NELM">     1</i>
   <i type="int" name="NELMHF">     1</i>
   <i type="int" name="DIM">     3</i>
   <i type="int" name="ANTIRES">     0</i>
   <i name="OMEGAMAX">    -30.00000000</i>
   <i name="OMEGAMIN">    -30.00000000</i>
   <i name="OMEGATL">   -200.00000000</i>
   <i type="int" name="OMEGAGRID">   140</i>
   <i name="CSHIFT">     -0.10000000</i>
   <i type="logical" name="SELFENERGY"> F  </i>
   <i type="logical" name="LSPECTRAL"> F  </i>
   <i type="logical" name="LSPECTRALGW"> F  </i>
   <i type="logical" name="LSINGLES"> F  </i>
   <i type="logical" name="LFERMIGW"> F  </i>
   <i type="logical" name="ODDONLYGW"> F  </i>
   <i type="logical" name="EVENONLYGW"> F  </i>
   <i type="int" name="NKREDLFX">     1</i>
   <i type="int" name="NKREDLFY">     1</i>
   <i type="int" name="NKREDLFZ">     1</i>
   <i type="int" name="MAXMEM">  2800</i>
   <i type="int" name="TELESCOPE">     0</i>
   <i type="int" name="TAUPAR">     1</i>
   <i type="int" name="OMEGAPAR">    -1</i>
   <i name="LAMBDA">      1.00000000</i>
  </separator>
  <separator name="External order field" >
   <i name="OFIELD_KAPPA">      0.00000000</i>
   <v name="OFIELD_K">      0.00000000      0.00000000      0.00000000</v>
   <i name="OFIELD_Q6_NEAR">      0.00000000</i>
   <i name="OFIELD_Q6_FAR">      0.00000000</i>
   <i name="OFIELD_A">      0.00000000</i>
  </separator>
 </parameters>
 <atominfo>
  <atoms>       8 </atoms>
  <types>       2 </types>
  <array name="atoms" >
   <dimension dim="1">ion</dimension>
   <field type="string">element</field>
   <field type="int">atomtype</field>
   <set>
    <rc><c>Sn</c><c>   1</c></rc>
    <rc><c>Sn</c><c>   1</c></rc>
    <rc><c>Sn</c><c>   1</c></rc>
    <rc><c>Sn</c><c>   1</c></rc>
    <rc><c>Se</c><c>   2</c></rc>
    <rc><c>Se</c><c>   2</c></rc>
    <rc><c>Se</c><c>   2</c></rc>
    <rc><c>Se</c><c>   2</c></rc>
   </set>
  </array>
  <array name="atomtypes" >
   <dimension dim="1">type</dimension>
   <field type="int">atomspertype</field>
   <field type="string">element</field>
   <field>mass</field>
   <field>valence</field>
   <field type="string">pseudopotential</field>
   <set>
    <rc><c>   4</c><c>Sn</c><c>    118.71000000</c><c>     14.00000000</c><c>  PAW_PBE Sn_d 06Sep2000                </c></rc>
    <rc><c>   4</c><c>Se</c><c>     78.96000000</c><c>      6.00000000</c><c>  PAW_PBE Se 06Sep2000                  </c></rc>
   </set>
  </array>
 </atominfo>
 <structure name="initialpos" >
  <crystal>
   <varray name="basis" >
    <v>       4.16842225       0.00000000       0.00000000 </v>
    <v>       0.00000000       4.53967086       0.00000000 </v>
    <v>       0.00000000       0.00000000      11.56850013 </v>
   </varray>
   <i name="volume">    218.91379385 </i>
   <varray name="rec_basis" >
    <v>       0.23989892      -0.00000000       0.00000000 </v>
    <v>       0.00000000       0.22028029       0.00000000 </v>
    <v>      -0.00000000      -0.00000000       0.08644163 </v>
   </varray>
  </crystal>
  <varray name="positions" >
   <v>       0.25000000       0.11238621       0.11664596 </v>
   <v>       0.75000000       0.88761379       0.88335404 </v>
   <v>       0.75000000       0.61238621       0.38335404 </v>
   <v>       0.25000000       0.38761379       0.61664596 </v>
   <v>       0.75000000       0.51916418       0.14510650 </v>
   <v>       0.25000000       0.48083582       0.85489350 </v>
   <v>       0.25000000       0.01916418       0.35489350 </v>
   <v>       0.75000000       0.98083582       0.64510650 </v>
  </varray>
 </structure>
 <calculation>
  <scstep>
   <time name="total">   62.91   63.04</time>
   <energy>
    <i name="alphaZ">    201.88417816 </i>
    <i name="ewald">  -5919.77645388 </i>
    <i name="hartreedc">  -2398.15554250 </i>
    <i name="XCdc">    225.07947965 </i>
    <i name="pawpsdc">   8375.84262308 </i>
    <i name="pawaedc">  -8469.76292181 </i>
    <i name="eentropy">     -0.00335915 </i>
    <i name="bandstr">    300.49562245 </i>
    <i name="atom">   8600.94477988 </i>
    <i name="e_fr_energy">    916.54840588 </i>
    <i name="e_wo_entrp">    916.55176503 </i>
    <i name="e_0_energy">    916.55008546 </i>
   </energy>
  </scstep>
  <scstep>
   <time name="total">   56.67   56.73</time>
   <energy>
    <i name="e_fr_energy">    136.81679450 </i>
    <i name="e_wo_entrp">    136.81998171 </i>
    <i name="e_0_energy">    136.81838810 </i>
   </energy>
  </scstep>
  <scstep>
   <time name="total">   62.56   62.63</time>
   <energy>
    <i name="e_fr_energy">    -20.75830957 </i>
    <i name="e_wo_entrp">    -20.75830957 </i>
    <i name="e_0_energy">    -20.75830957 </i>
   </energy>
  </scstep>
  <scstep>
   <time name="total">   64.67   64.74</time>
   <energy>
    <i name="e_fr_energy">    -32.24118645 </i>
    <i name="e_wo_entrp">    -32.24118645 </i>
    <i name="e_0_energy">    -32.24118645 </i>
   </energy>
  </scstep>
  <scstep>
   <time name="total">   63.35   63.44</time>
   <energy>
    <i name="e_fr_energy">    -32.54258342 </i>
    <i name="e_wo_entrp">    -32.54258342 </i>
    <i name="e_0_energy">    -32.54258342 </i>
   </energy>
  </scstep>
  <scstep>
   <time name="total">   40.03   40.66</time>
   <energy>
    <i name="e_fr_energy">    -32.54258342 </i>
    <i name="e_wo_entrp">    -32.54258342 </i>
    <i name="e_0_energy">    -32.54258342 </i>
   </energy>
  </scstep>
  <scstep>
   <time name="total">   39.92   40.36</time>
   <energy>
    <i name="e_fr_energy">    -32.55123129 </i>
    <i name="e_wo_entrp">    -32.55123129 </i>
    <i name="e_0_energy">    -32.55123129 </i>
   </energy>
  </scstep>
  <scstep>
   <time name="total">   39.92   40.20</time>
   <energy>
    <i name="e_fr_energy">    -32.55396644 </i>
    <i name="e_wo_entrp">    -32.55396644 </i>
    <i name="e_0_energy">    -32.55396644 </i>
   </energy>
  </scstep>
  <scstep>
   <time name="total">   39.89   40.49</time>
   <energy>
    <i name="e_fr_energy">    -32.55505437 </i>
    <i name="e_wo_entrp">    -32.55505437 </i>
    <i name="e_0_energy">    -32.55505437 </i>
   </energy>
  </scstep>
  <scstep>
   <time name="total">   39.84   40.33</time>
   <energy>
    <i name="e_fr_energy">    -32.55529911 </i>
    <i name="e_wo_entrp">    -32.55529911 </i>
    <i name="e_0_energy">    -32.55529911 </i>
   </energy>
  </scstep>
  <scstep>
   <time name="total">   39.88   40.29</time>
   <energy>
    <i name="e_fr_energy">    -32.55536580 </i>
    <i name="e_wo_entrp">    -32.55536580 </i>
    <i name="e_0_energy">    -32.55536580 </i>
   </energy>
  </scstep>
  <scstep>
   <time name="total">   39.60   40.44</time>
   <energy>
    <i name="e_fr_energy">    -32.55538314 </i>
    <i name="e_wo_entrp">    -32.55538314 </i>
    <i name="e_0_energy">    -32.55538314 </i>
   </energy>
  </scstep>
  <scstep>
   <time name="total">   39.78   40.15</time>
   <energy>
    <i name="e_fr_energy">    -32.55538647 </i>
    <i name="e_wo_entrp">    -32.55538647 </i>
    <i name="e_0_energy">    -32.55538647 </i>
   </energy>
  </scstep>
  <scstep>
   <time name="total">   39.90   40.53</time>
   <energy>
    <i name="e_fr_energy">    -32.55538720 </i>
    <i name="e_wo_entrp">    -32.55538720 </i>
    <i name="e_0_energy">    -32.55538720 </i>
   </energy>
  </scstep>
  <scstep>
   <time name="total">   39.55   40.43</time>
   <energy>
    <i name="e_fr_energy">    -32.55538740 </i>
    <i name="e_wo_entrp">    -32.55538740 </i>
    <i name="e_0_energy">    -32.55538740 </i>
   </energy>
  </scstep>
  <scstep>
   <time name="total">   48.47   49.07</time>
   <energy>
    <i name="alphaZ">    201.88417816 </i>
    <i name="ewald">  -5919.77645388 </i>
    <i name="hartreedc">  -2398.15554250 </i>
    <i name="XCdc">    225.07947965 </i>
    <i name="pawpsdc">   8375.84262308 </i>
    <i name="pawaedc">  -8469.76292181 </i>
    <i name="eentropy">     -0.00000000 </i>
    <i name="bandstr">   -648.61153006 </i>
    <i name="atom">   8600.94477988 </i>
    <i name="e_fr_energy">    -32.55538748 </i>
    <i name="e_wo_entrp">    -32.55538748 </i>
    <i name="e_0_energy">    -32.55538748 </i>
   </energy>
  </scstep>
  <structure>
   <crystal>
    <varray name="basis" >
     <v>       4.16842225       0.00000000       0.00000000 </v>
     <v>       0.00000000       4.53967086       0.00000000 </v>
     <v>       0.00000000       0.00000000      11.56850013 </v>
    </varray>
    <i name="volume">    218.91379385 </i>
    <varray name="rec_basis" >
     <v>       0.23989892      -0.00000000       0.00000000 </v>
     <v>       0.00000000       0.22028029       0.00000000 </v>
     <v>      -0.00000000      -0.00000000       0.08644163 </v>
    </varray>
   </crystal>
   <varray name="positions" >
    <v>       0.25000000       0.11238621       0.11664596 </v>
    <v>       0.75000000       0.88761379       0.88335404 </v>
    <v>       0.75000000       0.61238621       0.38335404 </v>
    <v>       0.25000000       0.38761379       0.61664596 </v>
    <v>       0.75000000       0.51916418       0.14510650 </v>
    <v>       0.25000000       0.48083582       0.85489350 </v>
    <v>       0.25000000       0.01916418       0.35489350 </v>
    <v>       0.75000000       0.98083582       0.64510650 </v>
   </varray>
  </structure>
  <varray name="forces" >
   <v>       0.00000000       0.10798439       0.07730593 </v>
   <v>      -0.00000000      -0.10798439      -0.07730593 </v>
   <v>       0.00000000       0.10798439      -0.07730593 </v>
   <v>      -0.00000000      -0.10798439       0.07730593 </v>
   <v>      -0.00000000      -0.14147664       0.07072195 </v>
   <v>       0.00000000       0.14147664      -0.07072195 </v>
   <v>      -0.00000000      -0.14147664      -0.07072195 </v>
   <v>       0.00000000       0.14147664       0.07072195 </v>
  </varray>
  <varray name="stress" >
   <v>      10.19181123      -0.00000000       0.00000000 </v>
   <v>      -0.00000000      -0.20122145      -0.00000000 </v>
   <v>       0.00000000      -0.00000000     -16.39041961 </v>
  </varray>
  <energy>
   <i name="e_fr_energy">    -34.32055186 </i>
   <i name="e_wo_entrp">    -34.32055186 </i>
   <i name="e_0_energy">     -0.00000000 </i>
  </energy>
  <time name="totalsc">  833.48  841.50</time>
  <eigenvalues>
   <array>
    <dimension dim="1">band</dimension>
    <dimension dim="2">kpoint</dimension>
    <dimension dim="3">spin</dimension>
    <field>eigene</field>
    <field>occ</field>
    <set>
     <set comment="spin 1">
      <set comment="kpoint 1">
       <r>  -16.1657    1.0000 </r>
       <r>  -16.1536    1.0000 </r>
       <r>  -16.1520    1.0000 </r>
       <r>  -16.1476    1.0000 </r>
       <r>  -16.1472    1.0000 </r>
       <r>  -16.1447    1.0000 </r>
       <r>  -16.1417    1.0000 </r>
       <r>  -16.1391    1.0000 </r>
       <r>  -16.1326    1.0000 </r>
       <r>  -16.1310    1.0000 </r>
       <r>  -16.1283    1.0000 </r>
       <r>  -16.1264    1.0000 </r>
       <r>  -16.1187    1.0000 </r>
       <r>  -16.1158    1.0000 </r>
       <r>  -16.0968    1.0000 </r>
       <r>  -16.0928    1.0000 </r>
       <r>  -16.0894    1.0000 </r>
       <r>  -16.0865    1.0000 </r>
       <r>  -16.0802    1.0000 </r>
       <r>  -16.0734    1.0000 </r>
       <r>   -8.4539    1.0000 </r>
       <r>   -8.1222    1.0000 </r>
       <r>   -7.4899    1.0000 </r>
       <r>   -7.0335    1.0000 </r>
       <r>   -1.9879    1.0000 </r>
       <r>   -0.9332    1.0000 </r>
       <r>   -0.4282    1.0000 </r>
       <r>    0.1800    1.0000 </r>
       <r>    0.5058    1.0000 </r>
       <r>    1.9217    1.0000 </r>
       <r>    1.9943    1.0000 </r>
       <r>    1.9990    1.0000 </r>
       <r>    2.2915    1.0000 </r>
       <r>    2.4847    1.0000 </r>
       <r>    3.0251    1.0000 </r>
       <r>    3.3613    1.0000 </r>
       <r>    3.6829    1.0000 </r>
       <r>    4.1055    1.0000 </r>
       <r>    4.4531    1.0000 </r>
       <r>    4.7233    1.0000 </r>
       <r>    5.9264    0.0000 </r>
       <r>    7.8687    0.0000 </r>
       <r>    8.1280    0.0000 </r>
       <r>    8.1321    0.0000 </r>
       <r>    8.3098    0.0000 </r>
       <r>    8.5700    0.0000 </r>
       <r>    9.0812    0.0000 </r>
       <r>    9.6362    0.0000 </r>
       <r>    9.7291    0.0000 </r>
       <r>    9.9055    0.0000 </r>
       <r>   10.5211    0.0000 </r>
       <r>   11.0243    0.0000 </r>
       <r>   11.1741    0.0000 </r>
       <r>   11.2584    0.0000 </r>
       <r>   11.5466    0.0000 </r>
       <r>   12.1397    0.0000 </r>
       <r>   12.1988    0.0000 </r>
       <r>   13.1353    0.0000 </r>
       <r>   13.6217    0.0000 </r>
       <r>   13.7483    0.0000 </r>
      </set>
      <set comment="kpoint 2">
       <r>  -16.1656    1.0000 </r>
       <r>  -16.1535    1.0000 </r>
       <r>  -16.1519    1.0000 </r>
       <r>  -16.1477    1.0000 </r>
       <r>  -16.1471    1.0000 </r>
       <r>  -16.1448    1.0000 </r>
       <r>  -16.1417    1.0000 </r>
       <r>  -16.1391    1.0000 </r>
       <r>  -16.1326    1.0000 </r>
       <r>  -16.1310    1.0000 </r>
       <r>  -16.1282    1.0000 </r>
       <r>  -16.1265    1.0000 </r>
       <r>  -16.1187    1.0000 </r>
       <r>  -16.1158    1.0000 </r>
       <r>  -16.0968    1.0000 </r>
       <r>  -16.0928    1.0000 </r>
       <r>  -16.0894    1.0000 </r>
       <r>  -16.0866    1.0000 </r>
       <r>  -16.0801    1.0000 </r>
       <r>  -16.0734    1.0000 </r>
       <r>   -8.4514    1.0000 </r>
       <r>   -8.1200    1.0000 </r>
       <r>   -7.4886    1.0000 </r>
       <r>   -7.0332    1.0000 </r>
       <r>   -1.9910    1.0000 </r>
       <r>   -0.9400    1.0000 </r>
       <r>   -0.4301    1.0000 </r>
       <r>    0.1658    1.0000 </r>
       <r>    0.5055    1.0000 </r>
       <r>    1.9249    1.0000 </r>
       <r>    1.9564    1.0000 </r>
       <r>    2.0410    1.0000 </r>
       <r>    2.2941    1.0000 </r>
       <r>    2.4816    1.0000 </r>
       <r>    3.0312    1.0000 </r>
       <r>    3.3628    1.0000 </r>
       <r>    3.6799    1.0000 </r>
       <r>    4.1127    1.0000 </r>
       <r>    4.4539    1.0000 </r>
       <r>    4.7216    1.0000 </r>
       <r>    5.9305    0.0000 </r>
       <r>    7.8749    0.0000 </r>
       <r>    8.1365    0.0000 </r>
       <r>    8.1431    0.0000 </r>
       <r>    8.2731    0.0000 </r>
       <r>    8.5678    0.0000 </r>
       <r>    9.0810    0.0000 </r>
       <r>    9.6134    0.0000 </r>
       <r>    9.7004    0.0000 </r>
       <r>    9.9167    0.0000 </r>
       <r>   10.5250    0.0000 </r>
       <r>   11.0049    0.0000 </r>
       <r>   11.1768    0.0000 </r>
       <r>   11.2665    0.0000 </r>
       <r>   11.5229    0.0000 </r>
       <r>   12.1134    0.0000 </r>
       <r>   12.1796    0.0000 </r>
       <r>   13.1760    0.0000 </r>
       <r>   13.5757    0.0000 </r>
       <r>   13.6990    0.0000 </r>
      </set>
      <set comment="kpoint 3">
       <r>  -16.1653    1.0000 </r>
       <r>  -16.1534    1.0000 </r>
       <r>  -16.1516    1.0000 </r>
       <r>  -16.1478    1.0000 </r>
       <r>  -16.1470    1.0000 </r>
       <r>  -16.1450    1.0000 </r>
       <r>  -16.1419    1.0000 </r>
       <r>  -16.1393    1.0000 </r>
       <r>  -16.1328    1.0000 </r>
       <r>  -16.1309    1.0000 </r>
       <r>  -16.1280    1.0000 </r>
       <r>  -16.1267    1.0000 </r>
       <r>  -16.1184    1.0000 </r>
       <r>  -16.1158    1.0000 </r>
       <r>  -16.0966    1.0000 </r>
       <r>  -16.0930    1.0000 </r>
       <r>  -16.0893    1.0000 </r>
       <r>  -16.0867    1.0000 </r>
       <r>  -16.0801    1.0000 </r>
       <r>  -16.0735    1.0000 </r>
       <r>   -8.4438    1.0000 </r>
       <r>   -8.1136    1.0000 </r>
       <r>   -7.4847    1.0000 </r>
       <r>   -7.0325    1.0000 </r>
       <r>   -2.0003    1.0000 </r>
       <r>   -0.9601    1.0000 </r>
       <r>   -0.4361    1.0000 </r>
       <r>    0.1242    1.0000 </r>
       <r>    0.5047    1.0000 </r>
       <r>    1.9215    1.0000 </r>
       <r>    1.9345    1.0000 </r>
       <r>    2.0882    1.0000 </r>
       <r>    2.3019    1.0000 </r>
       <r>    2.4726    1.0000 </r>
       <r>    3.0487    1.0000 </r>
       <r>    3.3674    1.0000 </r>
       <r>    3.6712    1.0000 </r>
       <r>    4.1342    1.0000 </r>
       <r>    4.4559    1.0000 </r>
       <r>    4.7166    1.0000 </r>
       <r>    5.9424    0.0000 </r>
       <r>    7.8920    0.0000 </r>
       <r>    8.1613    0.0000 </r>
       <r>    8.1706    0.0000 </r>
       <r>    8.1753    0.0000 </r>
       <r>    8.5593    0.0000 </r>
       <r>    9.0795    0.0000 </r>
       <r>    9.5504    0.0000 </r>
       <r>    9.6217    0.0000 </r>
       <r>    9.9450    0.0000 </r>
       <r>   10.5293    0.0000 </r>
       <r>   10.9499    0.0000 </r>
       <r>   11.1808    0.0000 </r>
       <r>   11.2909    0.0000 </r>
       <r>   11.4541    0.0000 </r>
       <r>   12.0483    0.0000 </r>
       <r>   12.1266    0.0000 </r>
       <r>   13.1676    0.0000 </r>
       <r>   13.5902    0.0000 </r>
       <r>   13.7805    0.0000 </r>
      </set>
      <set comment="kpoint 4">
       <r>  -16.1648    1.0000 </r>
       <r>  -16.1532    1.0000 </r>
       <r>  -16.1512    1.0000 </r>
       <r>  -16.1481    1.0000 </r>
       <r>  -16.1467    1.0000 </r>
       <r>  -16.1452    1.0000 </r>
       <r>  -16.1423    1.0000 </r>
       <r>  -16.1395    1.0000 </r>
       <r>  -16.1331    1.0000 </r>
       <r>  -16.1307    1.0000 </r>
       <r>  -16.1276    1.0000 </r>
       <r>  -16.1271    1.0000 </r>
       <r>  -16.1181    1.0000 </r>
       <r>  -16.1159    1.0000 </r>
       <r>  -16.0964    1.0000 </r>
       <r>  -16.0931    1.0000 </r>
       <r>  -16.0891    1.0000 </r>
       <r>  -16.0870    1.0000 </r>
       <r>  -16.0801    1.0000 </r>
       <r>  -16.0736    1.0000 </r>
       <r>   -8.4312    1.0000 </r>
       <r>   -8.1028    1.0000 </r>
       <r>   -7.4783    1.0000 </r>
       <r>   -7.0315    1.0000 </r>
       <r>   -2.0158    1.0000 </r>
       <r>   -0.9928    1.0000 </r>
       <r>   -0.4469    1.0000 </r>
       <r>    0.0572    1.0000 </r>
       <r>    0.5044    1.0000 </r>
       <r>    1.8928    1.0000 </r>
       <r>    1.9504    1.0000 </r>
       <r>    2.1375    1.0000 </r>
       <r>    2.3150    1.0000 </r>
       <r>    2.4590    1.0000 </r>
       <r>    3.0762    1.0000 </r>
       <r>    3.3751    1.0000 </r>
       <r>    3.6579    1.0000 </r>
       <r>    4.1695    1.0000 </r>
       <r>    4.4592    1.0000 </r>
       <r>    4.7073    1.0000 </r>
       <r>    5.9618    0.0000 </r>
       <r>    7.9159    0.0000 </r>
       <r>    8.0178    0.0000 </r>
       <r>    8.1998    0.0000 </r>
       <r>    8.2258    0.0000 </r>
       <r>    8.5405    0.0000 </r>
       <r>    9.0726    0.0000 </r>
       <r>    9.4628    0.0000 </r>
       <r>    9.5089    0.0000 </r>
       <r>    9.9792    0.0000 </r>
       <r>   10.5189    0.0000 </r>
       <r>   10.8674    0.0000 </r>
       <r>   11.1764    0.0000 </r>
       <r>   11.3306    0.0000 </r>
       <r>   11.3466    0.0000 </r>
       <r>   11.9741    0.0000 </r>
       <r>   12.0507    0.0000 </r>
       <r>   13.2661    0.0000 </r>
       <r>   13.5435    0.0000 </r>
       <r>   13.6136    0.0000 </r>
      </set>
      <set comment="kpoint 5">
       <r>  -16.1641    1.0000 </r>
       <r>  -16.1530    1.0000 </r>
       <r>  -16.1506    1.0000 </r>
       <r>  -16.1484    1.0000 </r>
       <r>  -16.1463    1.0000 </r>
       <r>  -16.1455    1.0000 </r>
       <r>  -16.1428    1.0000 </r>
       <r>  -16.1398    1.0000 </r>
       <r>  -16.1334    1.0000 </r>
       <r>  -16.1305    1.0000 </r>
       <r>  -16.1275    1.0000 </r>
       <r>  -16.1271    1.0000 </r>
       <r>  -16.1177    1.0000 </r>
       <r>  -16.1160    1.0000 </r>
       <r>  -16.0961    1.0000 </r>
       <r>  -16.0934    1.0000 </r>
       <r>  -16.0889    1.0000 </r>
       <r>  -16.0875    1.0000 </r>
       <r>  -16.0800    1.0000 </r>
       <r>  -16.0737    1.0000 </r>
       <r>   -8.4137    1.0000 </r>
       <r>   -8.0879    1.0000 </r>
       <r>   -7.4696    1.0000 </r>
       <r>   -7.0303    1.0000 </r>
       <r>   -2.0371    1.0000 </r>
       <r>   -1.0373    1.0000 </r>
       <r>   -0.4635    1.0000 </r>
       <r>   -0.0322    1.0000 </r>
       <r>    0.5056    1.0000 </r>
       <r>    1.8714    1.0000 </r>
       <r>    1.9727    1.0000 </r>
       <r>    2.1878    1.0000 </r>
       <r>    2.3332    1.0000 </r>
       <r>    2.4422    1.0000 </r>
       <r>    3.1114    1.0000 </r>
       <r>    3.3857    1.0000 </r>
       <r>    3.6416    1.0000 </r>
       <r>    4.2179    1.0000 </r>
       <r>    4.4633    1.0000 </r>
       <r>    4.6931    1.0000 </r>
       <r>    5.9878    0.0000 </r>
       <r>    7.8303    0.0000 </r>
       <r>    7.9398    0.0000 </r>
       <r>    8.2463    0.0000 </r>
       <r>    8.2895    0.0000 </r>
       <r>    8.5080    0.0000 </r>
       <r>    9.0496    0.0000 </r>
       <r>    9.3761    0.0000 </r>
       <r>    9.3776    0.0000 </r>
       <r>   10.0102    0.0000 </r>
       <r>   10.4824    0.0000 </r>
       <r>   10.7686    0.0000 </r>
       <r>   11.1550    0.0000 </r>
       <r>   11.2092    0.0000 </r>
       <r>   11.3837    0.0000 </r>
       <r>   11.9172    0.0000 </r>
       <r>   11.9638    0.0000 </r>
       <r>   13.2946    0.0000 </r>
       <r>   13.4796    0.0000 </r>
       <r>   13.5753    0.0000 </r>
      </set>
      <set comment="kpoint 6">
       <r>  -16.1632    1.0000 </r>
       <r>  -16.1527    1.0000 </r>
       <r>  -16.1498    1.0000 </r>
       <r>  -16.1487    1.0000 </r>
       <r>  -16.1459    1.0000 </r>
       <r>  -16.1458    1.0000 </r>
       <r>  -16.1433    1.0000 </r>
       <r>  -16.1402    1.0000 </r>
       <r>  -16.1337    1.0000 </r>
       <r>  -16.1303    1.0000 </r>
       <r>  -16.1280    1.0000 </r>
       <r>  -16.1265    1.0000 </r>
       <r>  -16.1172    1.0000 </r>
       <r>  -16.1161    1.0000 </r>
       <r>  -16.0957    1.0000 </r>
       <r>  -16.0937    1.0000 </r>
       <r>  -16.0886    1.0000 </r>
       <r>  -16.0880    1.0000 </r>
       <r>  -16.0799    1.0000 </r>
       <r>  -16.0739    1.0000 </r>
       <r>   -8.3913    1.0000 </r>
       <r>   -8.0688    1.0000 </r>
       <r>   -7.4587    1.0000 </r>
       <r>   -7.0291    1.0000 </r>
       <r>   -2.0640    1.0000 </r>
       <r>   -1.0921    1.0000 </r>
       <r>   -0.4873    1.0000 </r>
       <r>   -0.1404    1.0000 </r>
       <r>    0.5100    1.0000 </r>
       <r>    1.8579    1.0000 </r>
       <r>    2.0011    1.0000 </r>
       <r>    2.2385    1.0000 </r>
       <r>    2.3567    1.0000 </r>
       <r>    2.4242    1.0000 </r>
       <r>    3.1521    1.0000 </r>
       <r>    3.3992    1.0000 </r>
       <r>    3.6239    1.0000 </r>
       <r>    4.2782    1.0000 </r>
       <r>    4.4678    1.0000 </r>
       <r>    4.6730    1.0000 </r>
       <r>    6.0197    0.0000 </r>
       <r>    7.6202    0.0000 </r>
       <r>    7.9544    0.0000 </r>
       <r>    8.2894    0.0000 </r>
       <r>    8.3585    0.0000 </r>
       <r>    8.4586    0.0000 </r>
       <r>    8.9972    0.0000 </r>
       <r>    9.2406    0.0000 </r>
       <r>    9.3224    0.0000 </r>
       <r>   10.0333    0.0000 </r>
       <r>   10.4187    0.0000 </r>
       <r>   10.6656    0.0000 </r>
       <r>   11.0528    0.0000 </r>
       <r>   11.1130    0.0000 </r>
       <r>   11.4474    0.0000 </r>
       <r>   11.8756    0.0000 </r>
       <r>   11.8930    0.0000 </r>
       <r>   13.3902    0.0000 </r>
       <r>   13.4370    0.0000 </r>
       <r>   13.6065    0.0000 </r>
      </set>
      <set comment="kpoint 7">
       <r>  -16.1621    1.0000 </r>
       <r>  -16.1525    1.0000 </r>
       <r>  -16.1492    1.0000 </r>
       <r>  -16.1489    1.0000 </r>
       <r>  -16.1459    1.0000 </r>
       <r>  -16.1453    1.0000 </r>
       <r>  -16.1440    1.0000 </r>
       <r>  -16.1407    1.0000 </r>
       <r>  -16.1340    1.0000 </r>
       <r>  -16.1301    1.0000 </r>
       <r>  -16.1285    1.0000 </r>
       <r>  -16.1259    1.0000 </r>
       <r>  -16.1167    1.0000 </r>
       <r>  -16.1163    1.0000 </r>
       <r>  -16.0952    1.0000 </r>
       <r>  -16.0941    1.0000 </r>
       <r>  -16.0887    1.0000 </r>
       <r>  -16.0883    1.0000 </r>
       <r>  -16.0798    1.0000 </r>
       <r>  -16.0741    1.0000 </r>
       <r>   -8.3641    1.0000 </r>
       <r>   -8.0459    1.0000 </r>
       <r>   -7.4459    1.0000 </r>
       <r>   -7.0282    1.0000 </r>
       <r>   -2.0960    1.0000 </r>
       <r>   -1.1555    1.0000 </r>
       <r>   -0.5194    1.0000 </r>
       <r>   -0.2636    1.0000 </r>
       <r>    0.5192    1.0000 </r>
       <r>    1.8528    1.0000 </r>
       <r>    2.0357    1.0000 </r>
       <r>    2.2886    1.0000 </r>
       <r>    2.3852    1.0000 </r>
       <r>    2.4072    1.0000 </r>
       <r>    3.1965    1.0000 </r>
       <r>    3.4153    1.0000 </r>
       <r>    3.6066    1.0000 </r>
       <r>    4.3491    1.0000 </r>
       <r>    4.4724    1.0000 </r>
       <r>    4.6464    1.0000 </r>
       <r>    6.0567    0.0000 </r>
       <r>    7.3963    0.0000 </r>
       <r>    7.9491    0.0000 </r>
       <r>    8.3075    0.0000 </r>
       <r>    8.3904    0.0000 </r>
       <r>    8.4218    0.0000 </r>
       <r>    8.9275    0.0000 </r>
       <r>    9.1064    0.0000 </r>
       <r>    9.3143    0.0000 </r>
       <r>   10.0460    0.0000 </r>
       <r>   10.3371    0.0000 </r>
       <r>   10.5672    0.0000 </r>
       <r>   10.8923    0.0000 </r>
       <r>   11.0538    0.0000 </r>
       <r>   11.5211    0.0000 </r>
       <r>   11.7938    0.0000 </r>
       <r>   11.9052    0.0000 </r>
       <r>   13.3682    0.0000 </r>
       <r>   13.5012    0.0000 </r>
       <r>   13.6618    0.0000 </r>
      </set>
      <set comment="kpoint 8">
       <r>  -16.1610    1.0000 </r>
       <r>  -16.1525    1.0000 </r>
       <r>  -16.1496    1.0000 </r>
       <r>  -16.1478    1.0000 </r>
       <r>  -16.1460    1.0000 </r>
       <r>  -16.1448    1.0000 </r>
       <r>  -16.1448    1.0000 </r>
       <r>  -16.1412    1.0000 </r>
       <r>  -16.1343    1.0000 </r>
       <r>  -16.1299    1.0000 </r>
       <r>  -16.1291    1.0000 </r>
       <r>  -16.1252    1.0000 </r>
       <r>  -16.1164    1.0000 </r>
       <r>  -16.1161    1.0000 </r>
       <r>  -16.0946    1.0000 </r>
       <r>  -16.0946    1.0000 </r>
       <r>  -16.0894    1.0000 </r>
       <r>  -16.0879    1.0000 </r>
       <r>  -16.0797    1.0000 </r>
       <r>  -16.0743    1.0000 </r>
       <r>   -8.3324    1.0000 </r>
       <r>   -8.0192    1.0000 </r>
       <r>   -7.4315    1.0000 </r>
       <r>   -7.0280    1.0000 </r>
       <r>   -2.1324    1.0000 </r>
       <r>   -1.2256    1.0000 </r>
       <r>   -0.5610    1.0000 </r>
       <r>   -0.3986    1.0000 </r>
       <r>    0.5349    1.0000 </r>
       <r>    1.8563    1.0000 </r>
       <r>    2.0763    1.0000 </r>
       <r>    2.3375    1.0000 </r>
       <r>    2.3932    1.0000 </r>
       <r>    2.4184    1.0000 </r>
       <r>    3.2430    1.0000 </r>
       <r>    3.4338    1.0000 </r>
       <r>    3.5915    1.0000 </r>
       <r>    4.4288    1.0000 </r>
       <r>    4.4766    1.0000 </r>
       <r>    4.6132    1.0000 </r>
       <r>    6.0981    0.0000 </r>
       <r>    7.1651    0.0000 </r>
       <r>    7.9150    0.0000 </r>
       <r>    8.2715    0.0000 </r>
       <r>    8.3033    0.0000 </r>
       <r>    8.4657    0.0000 </r>
       <r>    8.8801    0.0000 </r>
       <r>    8.9793    0.0000 </r>
       <r>    9.3406    0.0000 </r>
       <r>   10.0453    0.0000 </r>
       <r>   10.2530    0.0000 </r>
       <r>   10.4664    0.0000 </r>
       <r>   10.7584    0.0000 </r>
       <r>   10.9862    0.0000 </r>
       <r>   11.6080    0.0000 </r>
       <r>   11.7232    0.0000 </r>
       <r>   11.9513    0.0000 </r>
       <r>   13.2787    0.0000 </r>
       <r>   13.6201    0.0000 </r>
       <r>   13.7280    0.0000 </r>
      </set>
      <set comment="kpoint 9">
       <r>  -16.1597    1.0000 </r>
       <r>  -16.1526    1.0000 </r>
       <r>  -16.1502    1.0000 </r>
       <r>  -16.1467    1.0000 </r>
       <r>  -16.1458    1.0000 </r>
       <r>  -16.1457    1.0000 </r>
       <r>  -16.1441    1.0000 </r>
       <r>  -16.1419    1.0000 </r>
       <r>  -16.1345    1.0000 </r>
       <r>  -16.1297    1.0000 </r>
       <r>  -16.1297    1.0000 </r>
       <r>  -16.1244    1.0000 </r>
       <r>  -16.1167    1.0000 </r>
       <r>  -16.1155    1.0000 </r>
       <r>  -16.0951    1.0000 </r>
       <r>  -16.0940    1.0000 </r>
       <r>  -16.0903    1.0000 </r>
       <r>  -16.0874    1.0000 </r>
       <r>  -16.0796    1.0000 </r>
       <r>  -16.0746    1.0000 </r>
       <r>   -8.2961    1.0000 </r>
       <r>   -7.9889    1.0000 </r>
       <r>   -7.4159    1.0000 </r>
       <r>   -7.0288    1.0000 </r>
       <r>   -2.1726    1.0000 </r>
       <r>   -1.3003    1.0000 </r>
       <r>   -0.6125    1.0000 </r>
       <r>   -0.5420    1.0000 </r>
       <r>    0.5583    1.0000 </r>
       <r>    1.8683    1.0000 </r>
       <r>    2.1227    1.0000 </r>
       <r>    2.3840    1.0000 </r>
       <r>    2.3843    1.0000 </r>
       <r>    2.4560    1.0000 </r>
       <r>    3.2906    1.0000 </r>
       <r>    3.4538    1.0000 </r>
       <r>    3.5804    1.0000 </r>
       <r>    4.4797    1.0000 </r>
       <r>    4.5154    1.0000 </r>
       <r>    4.5739    1.0000 </r>
       <r>    6.1434    0.0000 </r>
       <r>    6.9312    0.0000 </r>
       <r>    7.8483    0.0000 </r>
       <r>    8.1710    0.0000 </r>
       <r>    8.1994    0.0000 </r>
       <r>    8.4772    0.0000 </r>
       <r>    8.8573    0.0000 </r>
       <r>    8.8714    0.0000 </r>
       <r>    9.3901    0.0000 </r>
       <r>   10.0271    0.0000 </r>
       <r>   10.1817    0.0000 </r>
       <r>   10.3309    0.0000 </r>
       <r>   10.7038    0.0000 </r>
       <r>   10.9241    0.0000 </r>
       <r>   11.6674    0.0000 </r>
       <r>   11.7143    0.0000 </r>
       <r>   12.0270    0.0000 </r>
       <r>   13.1731    0.0000 </r>
       <r>   13.7364    0.0000 </r>
       <r>   14.0909    0.0000 </r>
      </set>
      <set comment="kpoint 10">
       <r>  -16.1583    1.0000 </r>
       <r>  -16.1530    1.0000 </r>
       <r>  -16.1507    1.0000 </r>
       <r>  -16.1467    1.0000 </r>
       <r>  -16.1455    1.0000 </r>
       <r>  -16.1453    1.0000 </r>
       <r>  -16.1435    1.0000 </r>
       <r>  -16.1425    1.0000 </r>
       <r>  -16.1347    1.0000 </r>
       <r>  -16.1302    1.0000 </r>
       <r>  -16.1295    1.0000 </r>
       <r>  -16.1236    1.0000 </r>
       <r>  -16.1170    1.0000 </r>
       <r>  -16.1149    1.0000 </r>
       <r>  -16.0957    1.0000 </r>
       <r>  -16.0933    1.0000 </r>
       <r>  -16.0913    1.0000 </r>
       <r>  -16.0869    1.0000 </r>
       <r>  -16.0794    1.0000 </r>
       <r>  -16.0748    1.0000 </r>
       <r>   -8.2557    1.0000 </r>
       <r>   -7.9554    1.0000 </r>
       <r>   -7.3995    1.0000 </r>
       <r>   -7.0311    1.0000 </r>
       <r>   -2.2155    1.0000 </r>
       <r>   -1.3775    1.0000 </r>
       <r>   -0.6911    1.0000 </r>
       <r>   -0.6738    1.0000 </r>
       <r>    0.5903    1.0000 </r>
       <r>    1.8884    1.0000 </r>
       <r>    2.1748    1.0000 </r>
       <r>    2.3813    1.0000 </r>
       <r>    2.4278    1.0000 </r>
       <r>    2.4976    1.0000 </r>
       <r>    3.3386    1.0000 </r>
       <r>    3.4727    1.0000 </r>
       <r>    3.5759    1.0000 </r>
       <r>    4.4812    1.0000 </r>
       <r>    4.5298    1.0000 </r>
       <r>    4.6068    1.0000 </r>
       <r>    6.1921    0.0000 </r>
       <r>    6.6987    0.0000 </r>
       <r>    7.7518    0.0000 </r>
       <r>    8.0253    0.0000 </r>
       <r>    8.0820    0.0000 </r>
       <r>    8.4481    0.0000 </r>
       <r>    8.7343    0.0000 </r>
       <r>    8.8811    0.0000 </r>
       <r>    9.4530    0.0000 </r>
       <r>    9.9872    0.0000 </r>
       <r>   10.1330    0.0000 </r>
       <r>   10.1552    0.0000 </r>
       <r>   10.7474    0.0000 </r>
       <r>   10.8849    0.0000 </r>
       <r>   11.6288    0.0000 </r>
       <r>   11.8472    0.0000 </r>
       <r>   12.1288    0.0000 </r>
       <r>   13.0560    0.0000 </r>
       <r>   13.8427    0.0000 </r>
       <r>   13.8611    0.0000 </r>
      </set>
      <set comment="kpoint 11">
       <r>  -16.1569    1.0000 </r>
       <r>  -16.1535    1.0000 </r>
       <r>  -16.1513    1.0000 </r>
       <r>  -16.1476    1.0000 </r>
       <r>  -16.1447    1.0000 </r>
       <r>  -16.1442    1.0000 </r>
       <r>  -16.1432    1.0000 </r>
       <r>  -16.1428    1.0000 </r>
       <r>  -16.1348    1.0000 </r>
       <r>  -16.1308    1.0000 </r>
       <r>  -16.1294    1.0000 </r>
       <r>  -16.1227    1.0000 </r>
       <r>  -16.1173    1.0000 </r>
       <r>  -16.1143    1.0000 </r>
       <r>  -16.0964    1.0000 </r>
       <r>  -16.0925    1.0000 </r>
       <r>  -16.0924    1.0000 </r>
       <r>  -16.0864    1.0000 </r>
       <r>  -16.0792    1.0000 </r>
       <r>  -16.0751    1.0000 </r>
       <r>   -8.2112    1.0000 </r>
       <r>   -7.9189    1.0000 </r>
       <r>   -7.3827    1.0000 </r>
       <r>   -7.0354    1.0000 </r>
       <r>   -2.2601    1.0000 </r>
       <r>   -1.4551    1.0000 </r>
       <r>   -0.8433    1.0000 </r>
       <r>   -0.7443    1.0000 </r>
       <r>    0.6311    1.0000 </r>
       <r>    1.9162    1.0000 </r>
       <r>    2.2322    1.0000 </r>
       <r>    2.3862    1.0000 </r>
       <r>    2.4670    1.0000 </r>
       <r>    2.5424    1.0000 </r>
       <r>    3.3866    1.0000 </r>
       <r>    3.4857    1.0000 </r>
       <r>    3.5831    1.0000 </r>
       <r>    4.4805    1.0000 </r>
       <r>    4.4826    1.0000 </r>
       <r>    4.7002    1.0000 </r>
       <r>    6.2437    0.0000 </r>
       <r>    6.4712    0.0000 </r>
       <r>    7.6335    0.0000 </r>
       <r>    7.8565    0.0000 </r>
       <r>    7.9553    0.0000 </r>
       <r>    8.3789    0.0000 </r>
       <r>    8.6049    0.0000 </r>
       <r>    8.8858    0.0000 </r>
       <r>    9.5166    0.0000 </r>
       <r>    9.9239    0.0000 </r>
       <r>    9.9612    0.0000 </r>
       <r>   10.1094    0.0000 </r>
       <r>   10.8707    0.0000 </r>
       <r>   10.8873    0.0000 </r>
       <r>   11.6096    0.0000 </r>
       <r>   12.0115    0.0000 </r>
       <r>   12.2543    0.0000 </r>
       <r>   12.9372    0.0000 </r>
       <r>   13.8905    0.0000 </r>
       <r>   14.0250    0.0000 </r>
      </set>
      <set comment="kpoint 12">
       <r>  -16.1556    1.0000 </r>
       <r>  -16.1540    1.0000 </r>
       <r>  -16.1518    1.0000 </r>
       <r>  -16.1487    1.0000 </r>
       <r>  -16.1440    1.0000 </r>
       <r>  -16.1439    1.0000 </r>
       <r>  -16.1429    1.0000 </r>
       <r>  -16.1421    1.0000 </r>
       <r>  -16.1348    1.0000 </r>
       <r>  -16.1313    1.0000 </r>
       <r>  -16.1293    1.0000 </r>
       <r>  -16.1218    1.0000 </r>
       <r>  -16.1177    1.0000 </r>
       <r>  -16.1137    1.0000 </r>
       <r>  -16.0971    1.0000 </r>
       <r>  -16.0936    1.0000 </r>
       <r>  -16.0917    1.0000 </r>
       <r>  -16.0859    1.0000 </r>
       <r>  -16.0790    1.0000 </r>
       <r>  -16.0753    1.0000 </r>
       <r>   -8.1629    1.0000 </r>
       <r>   -7.8798    1.0000 </r>
       <r>   -7.3661    1.0000 </r>
       <r>   -7.0422    1.0000 </r>
       <r>   -2.3053    1.0000 </r>
       <r>   -1.5309    1.0000 </r>
       <r>   -0.9966    1.0000 </r>
       <r>   -0.8228    1.0000 </r>
       <r>    0.6809    1.0000 </r>
       <r>    1.9507    1.0000 </r>
       <r>    2.2943    1.0000 </r>
       <r>    2.4000    1.0000 </r>
       <r>    2.5004    1.0000 </r>
       <r>    2.5899    1.0000 </r>
       <r>    3.4342    1.0000 </r>
       <r>    3.4885    1.0000 </r>
       <r>    3.6055    1.0000 </r>
       <r>    4.4350    1.0000 </r>
       <r>    4.4772    1.0000 </r>
       <r>    4.7920    1.0000 </r>
       <r>    6.2534    0.0000 </r>
       <r>    6.2979    0.0000 </r>
       <r>    7.5016    0.0000 </r>
       <r>    7.6777    0.0000 </r>
       <r>    7.8236    0.0000 </r>
       <r>    8.2770    0.0000 </r>
       <r>    8.4682    0.0000 </r>
       <r>    8.8724    0.0000 </r>
       <r>    9.5687    0.0000 </r>
       <r>    9.7615    0.0000 </r>
       <r>    9.8382    0.0000 </r>
       <r>   10.1065    0.0000 </r>
       <r>   10.9455    0.0000 </r>
       <r>   11.0562    0.0000 </r>
       <r>   11.6126    0.0000 </r>
       <r>   12.2085    0.0000 </r>
       <r>   12.4014    0.0000 </r>
       <r>   12.8219    0.0000 </r>
       <r>   13.9170    0.0000 </r>
       <r>   14.1765    0.0000 </r>
      </set>
      <set comment="kpoint 13">
       <r>  -16.1547    1.0000 </r>
       <r>  -16.1543    1.0000 </r>
       <r>  -16.1524    1.0000 </r>
       <r>  -16.1497    1.0000 </r>
       <r>  -16.1444    1.0000 </r>
       <r>  -16.1431    1.0000 </r>
       <r>  -16.1416    1.0000 </r>
       <r>  -16.1414    1.0000 </r>
       <r>  -16.1348    1.0000 </r>
       <r>  -16.1318    1.0000 </r>
       <r>  -16.1293    1.0000 </r>
       <r>  -16.1209    1.0000 </r>
       <r>  -16.1182    1.0000 </r>
       <r>  -16.1131    1.0000 </r>
       <r>  -16.0978    1.0000 </r>
       <r>  -16.0948    1.0000 </r>
       <r>  -16.0909    1.0000 </r>
       <r>  -16.0853    1.0000 </r>
       <r>  -16.0788    1.0000 </r>
       <r>  -16.0756    1.0000 </r>
       <r>   -8.1111    1.0000 </r>
       <r>   -7.8384    1.0000 </r>
       <r>   -7.3503    1.0000 </r>
       <r>   -7.0519    1.0000 </r>
       <r>   -2.3495    1.0000 </r>
       <r>   -1.6030    1.0000 </r>
       <r>   -1.1491    1.0000 </r>
       <r>   -0.9077    1.0000 </r>
       <r>    0.7391    1.0000 </r>
       <r>    1.9906    1.0000 </r>
       <r>    2.3597    1.0000 </r>
       <r>    2.4245    1.0000 </r>
       <r>    2.5267    1.0000 </r>
       <r>    2.6392    1.0000 </r>
       <r>    3.4809    1.0000 </r>
       <r>    3.4820    1.0000 </r>
       <r>    3.6411    1.0000 </r>
       <r>    4.3896    1.0000 </r>
       <r>    4.4707    1.0000 </r>
       <r>    4.8760    1.0000 </r>
       <r>    6.0518    0.0000 </r>
       <r>    6.3541    0.0000 </r>
       <r>    7.3634    0.0000 </r>
       <r>    7.4963    0.0000 </r>
       <r>    7.6910    0.0000 </r>
       <r>    8.1521    0.0000 </r>
       <r>    8.3274    0.0000 </r>
       <r>    8.8351    0.0000 </r>
       <r>    9.5624    0.0000 </r>
       <r>    9.6050    0.0000 </r>
       <r>    9.7335    0.0000 </r>
       <r>   10.1170    0.0000 </r>
       <r>   11.0600    0.0000 </r>
       <r>   11.2902    0.0000 </r>
       <r>   11.6435    0.0000 </r>
       <r>   12.4369    0.0000 </r>
       <r>   12.5675    0.0000 </r>
       <r>   12.7147    0.0000 </r>
       <r>   13.9100    0.0000 </r>
       <r>   14.3630    0.0000 </r>
      </set>
      <set comment="kpoint 14">
       <r>  -16.1553    1.0000 </r>
       <r>  -16.1532    1.0000 </r>
       <r>  -16.1529    1.0000 </r>
       <r>  -16.1507    1.0000 </r>
       <r>  -16.1448    1.0000 </r>
       <r>  -16.1423    1.0000 </r>
       <r>  -16.1408    1.0000 </r>
       <r>  -16.1403    1.0000 </r>
       <r>  -16.1346    1.0000 </r>
       <r>  -16.1323    1.0000 </r>
       <r>  -16.1292    1.0000 </r>
       <r>  -16.1199    1.0000 </r>
       <r>  -16.1187    1.0000 </r>
       <r>  -16.1124    1.0000 </r>
       <r>  -16.0985    1.0000 </r>
       <r>  -16.0961    1.0000 </r>
       <r>  -16.0900    1.0000 </r>
       <r>  -16.0847    1.0000 </r>
       <r>  -16.0787    1.0000 </r>
       <r>  -16.0759    1.0000 </r>
       <r>   -8.0563    1.0000 </r>
       <r>   -7.7952    1.0000 </r>
       <r>   -7.3359    1.0000 </r>
       <r>   -7.0650    1.0000 </r>
       <r>   -2.3913    1.0000 </r>
       <r>   -1.6696    1.0000 </r>
       <r>   -1.2989    1.0000 </r>
       <r>   -0.9973    1.0000 </r>
       <r>    0.8053    1.0000 </r>
       <r>    2.0341    1.0000 </r>
       <r>    2.4217    1.0000 </r>
       <r>    2.4659    1.0000 </r>
       <r>    2.5451    1.0000 </r>
       <r>    2.6893    1.0000 </r>
       <r>    3.4687    1.0000 </r>
       <r>    3.5265    1.0000 </r>
       <r>    3.6861    1.0000 </r>
       <r>    4.3495    1.0000 </r>
       <r>    4.4605    1.0000 </r>
       <r>    4.9407    1.0000 </r>
       <r>    5.8784    0.0000 </r>
       <r>    6.4113    0.0000 </r>
       <r>    7.2237    0.0000 </r>
       <r>    7.3165    0.0000 </r>
       <r>    7.5611    0.0000 </r>
       <r>    8.0135    0.0000 </r>
       <r>    8.1880    0.0000 </r>
       <r>    8.7725    0.0000 </r>
       <r>    9.3675    0.0000 </r>
       <r>    9.6139    0.0000 </r>
       <r>    9.6311    0.0000 </r>
       <r>   10.1333    0.0000 </r>
       <r>   11.2117    0.0000 </r>
       <r>   11.5610    0.0000 </r>
       <r>   11.7147    0.0000 </r>
       <r>   12.6193    0.0000 </r>
       <r>   12.6936    0.0000 </r>
       <r>   12.7494    0.0000 </r>
       <r>   13.7872    0.0000 </r>
       <r>   14.3601    0.0000 </r>
      </set>
      <set comment="kpoint 15">
       <r>  -16.1559    1.0000 </r>
       <r>  -16.1534    1.0000 </r>
       <r>  -16.1525    1.0000 </r>
       <r>  -16.1518    1.0000 </r>
       <r>  -16.1448    1.0000 </r>
       <r>  -16.1414    1.0000 </r>
       <r>  -16.1403    1.0000 </r>
       <r>  -16.1391    1.0000 </r>
       <r>  -16.1344    1.0000 </r>
       <r>  -16.1327    1.0000 </r>
       <r>  -16.1293    1.0000 </r>
       <r>  -16.1193    1.0000 </r>
       <r>  -16.1189    1.0000 </r>
       <r>  -16.1118    1.0000 </r>
       <r>  -16.0993    1.0000 </r>
       <r>  -16.0975    1.0000 </r>
       <r>  -16.0891    1.0000 </r>
       <r>  -16.0841    1.0000 </r>
       <r>  -16.0785    1.0000 </r>
       <r>  -16.0763    1.0000 </r>
       <r>   -7.9987    1.0000 </r>
       <r>   -7.7506    1.0000 </r>
       <r>   -7.3235    1.0000 </r>
       <r>   -7.0820    1.0000 </r>
       <r>   -2.4294    1.0000 </r>
       <r>   -1.7290    1.0000 </r>
       <r>   -1.4448    1.0000 </r>
       <r>   -1.0898    1.0000 </r>
       <r>    0.8790    1.0000 </r>
       <r>    2.0785    1.0000 </r>
       <r>    2.4719    1.0000 </r>
       <r>    2.5323    1.0000 </r>
       <r>    2.5557    1.0000 </r>
       <r>    2.7390    1.0000 </r>
       <r>    3.4490    1.0000 </r>
       <r>    3.5702    1.0000 </r>
       <r>    3.7382    1.0000 </r>
       <r>    4.3171    1.0000 </r>
       <r>    4.4464    1.0000 </r>
       <r>    4.9656    1.0000 </r>
       <r>    5.7546    0.0000 </r>
       <r>    6.4683    0.0000 </r>
       <r>    7.0858    0.0000 </r>
       <r>    7.1417    0.0000 </r>
       <r>    7.4374    0.0000 </r>
       <r>    7.8685    0.0000 </r>
       <r>    8.0557    0.0000 </r>
       <r>    8.6872    0.0000 </r>
       <r>    9.1799    0.0000 </r>
       <r>    9.4839    0.0000 </r>
       <r>    9.6552    0.0000 </r>
       <r>   10.1496    0.0000 </r>
       <r>   11.3654    0.0000 </r>
       <r>   11.8491    0.0000 </r>
       <r>   11.8583    0.0000 </r>
       <r>   12.5397    0.0000 </r>
       <r>   12.9424    0.0000 </r>
       <r>   12.9745    0.0000 </r>
       <r>   13.6231    0.0000 </r>
       <r>   14.2728    0.0000 </r>
      </set>
      <set comment="kpoint 16">
       <r>  -16.1565    1.0000 </r>
       <r>  -16.1539    1.0000 </r>
       <r>  -16.1527    1.0000 </r>
       <r>  -16.1521    1.0000 </r>
       <r>  -16.1445    1.0000 </r>
       <r>  -16.1405    1.0000 </r>
       <r>  -16.1398    1.0000 </r>
       <r>  -16.1379    1.0000 </r>
       <r>  -16.1340    1.0000 </r>
       <r>  -16.1330    1.0000 </r>
       <r>  -16.1293    1.0000 </r>
       <r>  -16.1199    1.0000 </r>
       <r>  -16.1179    1.0000 </r>
       <r>  -16.1112    1.0000 </r>
       <r>  -16.1001    1.0000 </r>
       <r>  -16.0988    1.0000 </r>
       <r>  -16.0882    1.0000 </r>
       <r>  -16.0835    1.0000 </r>
       <r>  -16.0784    1.0000 </r>
       <r>  -16.0766    1.0000 </r>
       <r>   -7.9387    1.0000 </r>
       <r>   -7.7052    1.0000 </r>
       <r>   -7.3137    1.0000 </r>
       <r>   -7.1033    1.0000 </r>
       <r>   -2.4622    1.0000 </r>
       <r>   -1.7798    1.0000 </r>
       <r>   -1.5852    1.0000 </r>
       <r>   -1.1834    1.0000 </r>
       <r>    0.9594    1.0000 </r>
       <r>    2.1189    1.0000 </r>
       <r>    2.5197    1.0000 </r>
       <r>    2.5610    1.0000 </r>
       <r>    2.6134    1.0000 </r>
       <r>    2.7868    1.0000 </r>
       <r>    3.4227    1.0000 </r>
       <r>    3.6115    1.0000 </r>
       <r>    3.7961    1.0000 </r>
       <r>    4.2944    1.0000 </r>
       <r>    4.4282    1.0000 </r>
       <r>    4.9274    1.0000 </r>
       <r>    5.7043    0.0000 </r>
       <r>    6.5231    0.0000 </r>
       <r>    6.9518    0.0000 </r>
       <r>    6.9745    0.0000 </r>
       <r>    7.3230    0.0000 </r>
       <r>    7.7228    0.0000 </r>
       <r>    7.9359    0.0000 </r>
       <r>    8.5843    0.0000 </r>
       <r>    9.0025    0.0000 </r>
       <r>    9.3473    0.0000 </r>
       <r>    9.6825    0.0000 </r>
[...]
       <r>   -7.2142    1.0000 </r>
       <r>   -1.5425    1.0000 </r>
       <r>   -1.5425    1.0000 </r>
       <r>   -1.5166    1.0000 </r>
       <r>   -1.5166    1.0000 </r>
       <r>    0.6922    1.0000 </r>
       <r>    0.6922    1.0000 </r>
       <r>    0.8387    1.0000 </r>
       <r>    0.8387    1.0000 </r>
       <r>    1.5008    1.0000 </r>
       <r>    1.5008    1.0000 </r>
       <r>    1.6532    1.0000 </r>
       <r>    1.6532    1.0000 </r>
       <r>    3.6254    1.0000 </r>
       <r>    3.6254    1.0000 </r>
       <r>    3.7788    1.0000 </r>
       <r>    3.7788    1.0000 </r>
       <r>    7.5581    0.0000 </r>
       <r>    7.5581    0.0000 </r>
       <r>    7.6494    0.0000 </r>
       <r>    7.6494    0.0000 </r>
       <r>    9.7602    0.0000 </r>
       <r>    9.7602    0.0000 </r>
       <r>    9.7692    0.0000 </r>
       <r>    9.7692    0.0000 </r>
       <r>   11.5334    0.0000 </r>
       <r>   11.5334    0.0000 </r>
       <r>   11.6176    0.0000 </r>
       <r>   11.6176    0.0000 </r>
       <r>   11.9377    0.0000 </r>
       <r>   11.9377    0.0000 </r>
       <r>   12.2676    0.0000 </r>
       <r>   12.2676    0.0000 </r>
       <r>   14.5750    0.0000 </r>
       <r>   14.6540    0.0000 </r>
       <r>   14.8734    0.0000 </r>
       <r>   15.6921    0.0000 </r>
      </set>
      <set comment="kpoint 224">
       <r>  -16.1648    1.0000 </r>
       <r>  -16.1648    1.0000 </r>
       <r>  -16.1648    1.0000 </r>
       <r>  -16.1648    1.0000 </r>
       <r>  -16.1377    1.0000 </r>
       <r>  -16.1377    1.0000 </r>
       <r>  -16.1377    1.0000 </r>
       <r>  -16.1377    1.0000 </r>
       <r>  -16.1261    1.0000 </r>
       <r>  -16.1261    1.0000 </r>
       <r>  -16.1261    1.0000 </r>
       <r>  -16.1261    1.0000 </r>
       <r>  -16.1038    1.0000 </r>
       <r>  -16.1038    1.0000 </r>
       <r>  -16.1038    1.0000 </r>
       <r>  -16.1038    1.0000 </r>
       <r>  -16.0803    1.0000 </r>
       <r>  -16.0803    1.0000 </r>
       <r>  -16.0803    1.0000 </r>
       <r>  -16.0803    1.0000 </r>
       <r>   -7.2150    1.0000 </r>
       <r>   -7.2150    1.0000 </r>
       <r>   -7.2150    1.0000 </r>
       <r>   -7.2150    1.0000 </r>
       <r>   -1.5299    1.0000 </r>
       <r>   -1.5299    1.0000 </r>
       <r>   -1.5299    1.0000 </r>
       <r>   -1.5299    1.0000 </r>
       <r>    0.7655    1.0000 </r>
       <r>    0.7655    1.0000 </r>
       <r>    0.7655    1.0000 </r>
       <r>    0.7655    1.0000 </r>
       <r>    1.5719    1.0000 </r>
       <r>    1.5719    1.0000 </r>
       <r>    1.5719    1.0000 </r>
       <r>    1.5719    1.0000 </r>
       <r>    3.7105    1.0000 </r>
       <r>    3.7105    1.0000 </r>
       <r>    3.7105    1.0000 </r>
       <r>    3.7105    1.0000 </r>
       <r>    7.5943    0.0000 </r>
       <r>    7.5943    0.0000 </r>
       <r>    7.5943    0.0000 </r>
       <r>    7.5943    0.0000 </r>
       <r>    9.7638    0.0000 </r>
       <r>    9.7638    0.0000 </r>
       <r>    9.7638    0.0000 </r>
       <r>    9.7638    0.0000 </r>
       <r>   11.5817    0.0000 </r>
       <r>   11.5817    0.0000 </r>
       <r>   11.5817    0.0000 </r>
       <r>   11.5817    0.0000 </r>
       <r>   12.1112    0.0000 </r>
       <r>   12.1112    0.0000 </r>
       <r>   12.1112    0.0000 </r>
       <r>   12.1112    0.0000 </r>
       <r>   14.7022    0.0000 </r>
       <r>   14.7026    0.0000 </r>
       <r>   14.7105    0.0000 </r>
       <r>   14.7432    0.0000 </r>
      </set>
     </set>
    </set>
   </array>
  </eigenvalues>
  <separator name="orbital magnetization" >
   <v name="MAGDIPOLOUT">      0.00000000      0.00000000      0.00000000</v>
  </separator>
  <dos>
   <i name="efermi">      5.40740069 </i>
   <total>
    <array>
     <dimension dim="1">gridpoints</dimension>
     <dimension dim="2">spin</dimension>
     <field>energy</field>
     <field>total</field>
     <field>integrated</field>
     <set>
      <set comment="spin 1">
       <r>   -17.7800     0.0000     0.0000 </r>
       <r>   -17.6617     0.0000     0.0000 </r>
       <r>   -17.5435     0.0000     0.0000 </r>
       <r>   -17.4253     0.0000     0.0000 </r>
       <r>   -17.3071     0.0000     0.0000 </r>
       <r>   -17.1888     0.0000     0.0000 </r>
       <r>   -17.0706     0.0000     0.0000 </r>
       <r>   -16.9524     0.0000     0.0000 </r>
       <r>   -16.8341     0.0000     0.0000 </r>
       <r>   -16.7159     0.0000     0.0000 </r>
       <r>   -16.5977     0.0000     0.0000 </r>
       <r>   -16.4795     0.0000     0.0000 </r>
       <r>   -16.3612     0.0000     0.0000 </r>
       <r>   -16.2430     0.7321     0.0866 </r>
       <r>   -16.1248   164.1973    19.4992 </r>
       <r>   -16.0066   171.9741    39.8313 </r>
       <r>   -15.8883     1.4273    40.0000 </r>
       <r>   -15.7701     0.0000    40.0000 </r>
       <r>   -15.6519     0.0000    40.0000 </r>
       <r>   -15.5336     0.0000    40.0000 </r>
       <r>   -15.4154     0.0000    40.0000 </r>
       <r>   -15.2972     0.0000    40.0000 </r>
       <r>   -15.1790     0.0000    40.0000 </r>
       <r>   -15.0607     0.0000    40.0000 </r>
       <r>   -14.9425     0.0000    40.0000 </r>
       <r>   -14.8243     0.0000    40.0000 </r>
       <r>   -14.7061     0.0000    40.0000 </r>
       <r>   -14.5878     0.0000    40.0000 </r>
       <r>   -14.4696     0.0000    40.0000 </r>
       <r>   -14.3514     0.0000    40.0000 </r>
       <r>   -14.2331     0.0000    40.0000 </r>
       <r>   -14.1149     0.0000    40.0000 </r>
       <r>   -13.9967     0.0000    40.0000 </r>
       <r>   -13.8785     0.0000    40.0000 </r>
       <r>   -13.7602     0.0000    40.0000 </r>
       <r>   -13.6420     0.0000    40.0000 </r>
       <r>   -13.5238     0.0000    40.0000 </r>
       <r>   -13.4055     0.0000    40.0000 </r>
       <r>   -13.2873     0.0000    40.0000 </r>
       <r>   -13.1691     0.0000    40.0000 </r>
       <r>   -13.0509     0.0000    40.0000 </r>
       <r>   -12.9326     0.0000    40.0000 </r>
       <r>   -12.8144     0.0000    40.0000 </r>
       <r>   -12.6962     0.0000    40.0000 </r>
       <r>   -12.5780     0.0000    40.0000 </r>
       <r>   -12.4597     0.0000    40.0000 </r>
       <r>   -12.3415     0.0000    40.0000 </r>
       <r>   -12.2233     0.0000    40.0000 </r>
       <r>   -12.1050     0.0000    40.0000 </r>
       <r>   -11.9868     0.0000    40.0000 </r>
       <r>   -11.8686     0.0000    40.0000 </r>
       <r>   -11.7504     0.0000    40.0000 </r>
       <r>   -11.6321     0.0000    40.0000 </r>
       <r>   -11.5139     0.0000    40.0000 </r>
       <r>   -11.3957     0.0000    40.0000 </r>
       <r>   -11.2775     0.0000    40.0000 </r>
       <r>   -11.1592     0.0000    40.0000 </r>
       <r>   -11.0410     0.0000    40.0000 </r>
       <r>   -10.9228     0.0000    40.0000 </r>
       <r>   -10.8045     0.0000    40.0000 </r>
       <r>   -10.6863     0.0000    40.0000 </r>
       <r>   -10.5681     0.0000    40.0000 </r>
       <r>   -10.4499     0.0000    40.0000 </r>
       <r>   -10.3316     0.0000    40.0000 </r>
       <r>   -10.2134     0.0000    40.0000 </r>
       <r>   -10.0952     0.0000    40.0000 </r>
       <r>    -9.9770     0.0000    40.0000 </r>
       <r>    -9.8587     0.0000    40.0000 </r>
       <r>    -9.7405     0.0000    40.0000 </r>
       <r>    -9.6223     0.0000    40.0000 </r>
       <r>    -9.5040     0.0000    40.0000 </r>
       <r>    -9.3858     0.0000    40.0000 </r>
       <r>    -9.2676     0.0000    40.0000 </r>
       <r>    -9.1494     0.0000    40.0000 </r>
       <r>    -9.0311     0.0000    40.0000 </r>
       <r>    -8.9129     0.0000    40.0000 </r>
       <r>    -8.7947     0.0000    40.0000 </r>
       <r>    -8.6764     0.0000    40.0000 </r>
       <r>    -8.5582     0.0009    40.0001 </r>
       <r>    -8.4400     0.6262    40.0741 </r>
       <r>    -8.3218     1.9229    40.3015 </r>
       <r>    -8.2035     2.5958    40.6084 </r>
       <r>    -8.0853     2.3717    40.8888 </r>
       <r>    -7.9671     1.9290    41.1168 </r>
       <r>    -7.8489     1.5631    41.3016 </r>
       <r>    -7.7306     3.1688    41.6763 </r>
       <r>    -7.6124     3.9914    42.1482 </r>
       <r>    -7.4942     3.4535    42.5565 </r>
       <r>    -7.3759    14.2775    44.2444 </r>
       <r>    -7.2577    13.8659    45.8838 </r>
       <r>    -7.1395    14.8183    47.6357 </r>
       <r>    -7.0213     2.4441    47.9247 </r>
       <r>    -6.9030     0.6370    48.0000 </r>
       <r>    -6.7848     0.0002    48.0000 </r>
       <r>    -6.6666     0.0000    48.0000 </r>
       <r>    -6.5484     0.0000    48.0000 </r>
       <r>    -6.4301     0.0000    48.0000 </r>
       <r>    -6.3119     0.0000    48.0000 </r>
       <r>    -6.1937     0.0000    48.0000 </r>
       <r>    -6.0754     0.0000    48.0000 </r>
       <r>    -5.9572     0.0000    48.0000 </r>
       <r>    -5.8390     0.0000    48.0000 </r>
       <r>    -5.7208     0.0000    48.0000 </r>
       <r>    -5.6025     0.0000    48.0000 </r>
       <r>    -5.4843     0.0000    48.0000 </r>
       <r>    -5.3661     0.0000    48.0000 </r>
       <r>    -5.2479     0.0000    48.0000 </r>
       <r>    -5.1296     0.0000    48.0000 </r>
       <r>    -5.0114     0.0000    48.0000 </r>
       <r>    -4.8932     0.0000    48.0000 </r>
       <r>    -4.7749     0.0000    48.0000 </r>
       <r>    -4.6567     0.0000    48.0000 </r>
       <r>    -4.5385     0.0000    48.0000 </r>
       <r>    -4.4203     0.0000    48.0000 </r>
       <r>    -4.3020     0.0000    48.0000 </r>
       <r>    -4.1838     0.0000    48.0000 </r>
       <r>    -4.0656     0.0000    48.0000 </r>
       <r>    -3.9473     0.0000    48.0000 </r>
       <r>    -3.8291     0.0000    48.0000 </r>
       <r>    -3.7109     0.0000    48.0000 </r>
       <r>    -3.5927     0.0000    48.0000 </r>
       <r>    -3.4744     0.0000    48.0000 </r>
       <r>    -3.3562     0.0000    48.0000 </r>
       <r>    -3.2380     0.0000    48.0000 </r>
       <r>    -3.1198     0.0000    48.0000 </r>
       <r>    -3.0015     0.0000    48.0000 </r>
       <r>    -2.8833     0.0075    48.0009 </r>
       <r>    -2.7651     0.4400    48.0529 </r>
       <r>    -2.6468     2.4863    48.3469 </r>
       <r>    -2.5286     2.8713    48.6863 </r>
       <r>    -2.4104     2.2084    48.9474 </r>
       <r>    -2.2922     3.1059    49.3146 </r>
       <r>    -2.1739     3.2996    49.7047 </r>
       <r>    -2.0557     4.6744    50.2574 </r>
       <r>    -1.9375     4.2381    50.7584 </r>
       <r>    -1.8193     4.0295    51.2348 </r>
       <r>    -1.7010     5.0328    51.8298 </r>
       <r>    -1.5828     5.2499    52.4505 </r>
       <r>    -1.4646     7.3378    53.3180 </r>
       <r>    -1.3463     5.7050    53.9925 </r>
       <r>    -1.2281     4.1815    54.4869 </r>
       <r>    -1.1099     2.0420    54.7283 </r>
       <r>    -0.9917     1.1562    54.8650 </r>
       <r>    -0.8734     1.2684    55.0150 </r>
       <r>    -0.7552     0.6434    55.0910 </r>
       <r>    -0.6370     0.6654    55.1697 </r>
       <r>    -0.5188     0.7516    55.2586 </r>
       <r>    -0.4005     1.1869    55.3989 </r>
       <r>    -0.2823     0.7020    55.4819 </r>
       <r>    -0.1641     0.6502    55.5587 </r>
       <r>    -0.0458     0.7803    55.6510 </r>
       <r>     0.0724     1.3135    55.8063 </r>
       <r>     0.1906     1.4040    55.9723 </r>
       <r>     0.3088     0.2710    56.0043 </r>
       <r>     0.4271     1.5497    56.1875 </r>
       <r>     0.5453     2.4186    56.4735 </r>
       <r>     0.6635     1.4806    56.6485 </r>
       <r>     0.7818     2.7470    56.9733 </r>
       <r>     0.9000     3.3379    57.3680 </r>
       <r>     1.0182     3.5771    57.7909 </r>
       <r>     1.1364     2.2842    58.0609 </r>
       <r>     1.2547     3.2525    58.4455 </r>
       <r>     1.3729     2.5428    58.7461 </r>
       <r>     1.4911     2.9047    59.0895 </r>
       <r>     1.6093     5.5695    59.7480 </r>
       <r>     1.7276     5.9575    60.4523 </r>
       <r>     1.8458     4.3359    60.9649 </r>
       <r>     1.9640     4.7115    61.5220 </r>
       <r>     2.0823     5.4932    62.1714 </r>
       <r>     2.2005     7.2003    63.0227 </r>
       <r>     2.3187     6.3525    63.7737 </r>
       <r>     2.4369     7.1752    64.6220 </r>
       <r>     2.5552     7.1458    65.4668 </r>
       <r>     2.6734     4.9614    66.0534 </r>
       <r>     2.7916     5.3548    66.6865 </r>
       <r>     2.9098     6.2919    67.4304 </r>
       <r>     3.0281     8.3142    68.4134 </r>
       <r>     3.1463    10.1528    69.6137 </r>
       <r>     3.2645     6.1063    70.3356 </r>
       <r>     3.3828     5.3137    70.9639 </r>
       <r>     3.5010     9.4150    72.0770 </r>
       <r>     3.6192     6.8370    72.8853 </r>
       <r>     3.7374     8.9679    73.9455 </r>
       <r>     3.8557     6.4861    74.7124 </r>
       <r>     3.9739     4.3597    75.2278 </r>
       <r>     4.0921     4.9932    75.8181 </r>
       <r>     4.2103     5.0256    76.4123 </r>
       <r>     4.3286     4.6954    76.9674 </r>
       <r>     4.4468     4.0006    77.4404 </r>
       <r>     4.5650     4.8141    78.0096 </r>
       <r>     4.6833     6.4647    78.7739 </r>
       <r>     4.8015     4.8270    79.3446 </r>
       <r>     4.9197     1.8151    79.5592 </r>
       <r>     5.0379     2.9981    79.9136 </r>
       <r>     5.1562     0.6436    79.9897 </r>
       <r>     5.2744     0.0869    80.0000 </r>
       <r>     5.3926     0.0000    80.0000 </r>
       <r>     5.5108     0.0000    80.0000 </r>
       <r>     5.6291     0.0015    80.0002 </r>
       <r>     5.7473     0.1580    80.0189 </r>
       <r>     5.8655     0.2110    80.0438 </r>
       <r>     5.9838     1.2434    80.1908 </r>
       <r>     6.1020     1.3340    80.3485 </r>
       <r>     6.2202     1.3862    80.5124 </r>
       <r>     6.3384     3.4692    80.9226 </r>
       <r>     6.4567     5.8154    81.6101 </r>
       <r>     6.5749     3.9144    82.0729 </r>
       <r>     6.6931     4.4420    82.5980 </r>
       <r>     6.8114     2.6540    82.9118 </r>
       <r>     6.9296     3.9184    83.3751 </r>
       <r>     7.0478     6.6593    84.1624 </r>
       <r>     7.1660     3.6572    84.5948 </r>
       <r>     7.2843     3.1338    84.9653 </r>
       <r>     7.4025     3.6950    85.4021 </r>
       <r>     7.5207     6.1156    86.1252 </r>
       <r>     7.6389     6.8948    86.9403 </r>
       <r>     7.7572     8.5200    87.9476 </r>
       <r>     7.8754     7.1333    88.7910 </r>
       <r>     7.9936     5.3390    89.4222 </r>
       <r>     8.1119     4.4926    89.9533 </r>
       <r>     8.2301     5.2867    90.5784 </r>
       <r>     8.3483     5.8170    91.2661 </r>
       <r>     8.4665     9.0330    92.3340 </r>
       <r>     8.5848     6.5694    93.1107 </r>
       <r>     8.7030     5.2403    93.7303 </r>
       <r>     8.8212     4.2171    94.2288 </r>
       <r>     8.9394     6.1696    94.9583 </r>
       <r>     9.0577     4.2141    95.4565 </r>
       <r>     9.1759     3.7281    95.8973 </r>
       <r>     9.2941     2.8851    96.2384 </r>
       <r>     9.4124     3.3160    96.6304 </r>
       <r>     9.5306     3.5790    97.0535 </r>
       <r>     9.6488     4.4896    97.5843 </r>
       <r>     9.7670     7.4249    98.4622 </r>
       <r>     9.8853     6.9807    99.2875 </r>
       <r>    10.0035     7.4615   100.1696 </r>
       <r>    10.1217     5.4358   100.8123 </r>
       <r>    10.2399     2.4044   101.0966 </r>
       <r>    10.3582     2.1644   101.3525 </r>
       <r>    10.4764     2.4366   101.6405 </r>
       <r>    10.5946     3.3003   102.0307 </r>
       <r>    10.7129     3.5826   102.4543 </r>
       <r>    10.8311     4.8420   103.0267 </r>
       <r>    10.9493     4.8345   103.5983 </r>
       <r>    11.0675     3.4035   104.0007 </r>
       <r>    11.1858     3.0348   104.3595 </r>
       <r>    11.3040     2.7407   104.6835 </r>
       <r>    11.4222     2.5775   104.9882 </r>
       <r>    11.5405     4.5739   105.5290 </r>
       <r>    11.6587     5.0489   106.1259 </r>
       <r>    11.7769     3.2366   106.5086 </r>
       <r>    11.8951     2.6407   106.8208 </r>
       <r>    12.0134     2.0653   107.0649 </r>
       <r>    12.1316     4.3792   107.5827 </r>
       <r>    12.2498     9.3443   108.6874 </r>
       <r>    12.3680     5.3097   109.3152 </r>
       <r>    12.4863     4.7374   109.8753 </r>
       <r>    12.6045     4.1349   110.3641 </r>
       <r>    12.7227     3.3551   110.7608 </r>
       <r>    12.8410     3.8190   111.2123 </r>
       <r>    12.9592     4.8422   111.7848 </r>
       <r>    13.0774     5.5947   112.4463 </r>
       <r>    13.1956     4.9813   113.0352 </r>
       <r>    13.3139     5.3782   113.6710 </r>
       <r>    13.4321     3.9260   114.1352 </r>
       <r>    13.5503     3.2513   114.5196 </r>
       <r>    13.6685     3.5025   114.9337 </r>
       <r>    13.7868     3.2414   115.3169 </r>
       <r>    13.9050     3.4098   115.7200 </r>
       <r>    14.0232     2.9063   116.0637 </r>
       <r>    14.1415     2.9249   116.4095 </r>
       <r>    14.2597     2.7976   116.7402 </r>
       <r>    14.3779     2.7033   117.0598 </r>
       <r>    14.4961     2.6329   117.3711 </r>
       <r>    14.6144     4.9182   117.9526 </r>
       <r>    14.7326     4.3811   118.4705 </r>
       <r>    14.8508     3.5474   118.8899 </r>
       <r>    14.9690     2.3887   119.1723 </r>
       <r>    15.0873     1.1584   119.3093 </r>
       <r>    15.2055     1.2080   119.4521 </r>
       <r>    15.3237     1.3629   119.6132 </r>
       <r>    15.4420     0.8537   119.7142 </r>
       <r>    15.5602     0.6217   119.7877 </r>
       <r>    15.6784     0.6856   119.8687 </r>
       <r>    15.7966     0.5003   119.9279 </r>
       <r>    15.9149     0.4717   119.9837 </r>
       <r>    16.0331     0.0712   119.9921 </r>
       <r>    16.1513     0.0658   119.9999 </r>
       <r>    16.2696     0.0013   120.0000 </r>
       <r>    16.3878     0.0000   120.0000 </r>
       <r>    16.5060     0.0000   120.0000 </r>
       <r>    16.6242     0.0000   120.0000 </r>
       <r>    16.7425     0.0000   120.0000 </r>
       <r>    16.8607     0.0000   120.0000 </r>
       <r>    16.9789     0.0000   120.0000 </r>
       <r>    17.0971     0.0000   120.0000 </r>
       <r>    17.2154     0.0000   120.0000 </r>
       <r>    17.3336     0.0000   120.0000 </r>
       <r>    17.4518     0.0000   120.0000 </r>
       <r>    17.5701     0.0000   120.0000 </r>
       <r>    17.6883     0.0000   120.0000 </r>
      </set>
     </set>
    </array>
   </total>
  </dos>
 </calculation>
 <structure name="finalpos" >
  <crystal>
   <varray name="basis" >
    <v>       4.16842225       0.00000000       0.00000000 </v>
    <v>       0.00000000       4.53967086       0.00000000 </v>
    <v>       0.00000000       0.00000000      11.56850013 </v>
   </varray>
   <i name="volume">    218.91379385 </i>
   <varray name="rec_basis" >
    <v>       0.23989892      -0.00000000       0.00000000 </v>
    <v>       0.00000000       0.22028029       0.00000000 </v>
    <v>      -0.00000000      -0.00000000       0.08644163 </v>
   </varray>
  </crystal>
  <varray name="positions" >
   <v>       0.25000000       0.11238621       0.11664596 </v>
   <v>       0.75000000       0.88761379       0.88335404 </v>
   <v>       0.75000000       0.61238621       0.38335404 </v>
   <v>       0.25000000       0.38761379       0.61664596 </v>
   <v>       0.75000000       0.51916418       0.14510650 </v>
   <v>       0.25000000       0.48083582       0.85489350 </v>
   <v>       0.25000000       0.01916418       0.35489350 </v>
   <v>       0.75000000       0.98083582       0.64510650 </v>
  </varray>
 </structure>
</modeling>
