<?xml version="1.0" encoding="ISO-8859-1"?>
<modeling>
 <generator>
  <i name="program" type="string">vasp </i>
  <i name="version" type="string">5.4.4.18Apr17-6-g9f103f2a35  </i>
  <i name="subversion" type="string">(build Mar 20 2018 18:01:20) complex            parallel </i>
  <i name="platform" type="string">LinuxGNU </i>
  <i name="date" type="string">2020 07 13 </i>
  <i name="time" type="string">22:24:09 </i>
 </generator>
 <incar>
  <i type="string" name="SYSTEM"> SnSe</i>
  <i type="int" name="ISTART">     1</i>
  <i type="string" name="PREC">accurate</i>
  <i type="string" name="ALGO"> A</i>
  <i type="logical" name="ADDGRID"> T  </i>
  <i type="int" name="ISPIN">     1</i>
  <i type="int" name="ICHARG">    11</i>
  <i type="int" name="IBRION">    -1</i>
  <i name="EDIFF">      0.00000010</i>
  <i name="EDIFFG">     -0.00100000</i>
  <i type="int" name="NSW">     0</i>
  <i name="ENCUT">    600.00000000</i>
  <i type="int" name="NBANDS">    48</i>
  <i type="logical" name="LREAL"> F  </i>
  <i type="logical" name="LPLANE"> T  </i>
  <i type="int" name="ISMEAR">     0</i>
  <i name="SIGMA">      0.01000000</i>
  <i type="int" name="LMAXMIX">     4</i>
  <i type="logical" name="LWAVE"> F  </i>
  <i type="logical" name="LCHARG"> F  </i>
  <v type="int" name="KPOINT_BSE">    -1     0     0     0</v>
 </incar>
 <structure name="primitive_cell" >
  <crystal>
   <varray name="basis" >
    <v>       2.13671296      -5.91749822      -0.00000000 </v>
    <v>       2.13671296       5.91749822       0.00000000 </v>
    <v>       0.00000000       0.00000000       4.25106507 </v>
   </varray>
   <i name="volume">    107.50089215 </i>
   <varray name="rec_basis" >
    <v>       0.23400429      -0.08449517       0.00000000 </v>
    <v>       0.23400429       0.08449517      -0.00000000 </v>
    <v>       0.00000000      -0.00000000       0.23523517 </v>
   </varray>
  </crystal>
  <varray name="positions" >
   <v>       0.37491111      -0.37491111       0.25000000 </v>
   <v>       0.14355042      -0.14355042       0.25000000 </v>
   <v>      -0.14355042       0.14355042      -0.25000000 </v>
   <v>      -0.37491111       0.37491111      -0.25000000 </v>
  </varray>
 </structure>
 <varray name="primitive_index" >
  <v type="int" >        1 </v>
  <v type="int" >        3 </v>
  <v type="int" >        4 </v>
  <v type="int" >        2 </v>
 </varray>
 <kpoints>
  <varray name="kpointlist" >
   <v>       0.00000000       0.00000000       0.00000000 </v>
   <v>       0.00672846       0.00672846       0.00000000 </v>
   <v>       0.01345692       0.01345692       0.00000000 </v>
   <v>       0.02018538       0.02018538       0.00000000 </v>
   <v>       0.02691385       0.02691385       0.00000000 </v>
   <v>       0.03364231       0.03364231       0.00000000 </v>
   <v>       0.04037077       0.04037077       0.00000000 </v>
   <v>       0.04709923       0.04709923       0.00000000 </v>
   <v>       0.05382769       0.05382769       0.00000000 </v>
   <v>       0.06055615       0.06055615       0.00000000 </v>
   <v>       0.06728462       0.06728462       0.00000000 </v>
   <v>       0.07401308       0.07401308       0.00000000 </v>
   <v>       0.08074154       0.08074154       0.00000000 </v>
   <v>       0.08747000       0.08747000       0.00000000 </v>
   <v>       0.09419846       0.09419846       0.00000000 </v>
   <v>       0.10092692       0.10092692       0.00000000 </v>
   <v>       0.10765538       0.10765538       0.00000000 </v>
   <v>       0.11438385       0.11438385       0.00000000 </v>
   <v>       0.12111231       0.12111231       0.00000000 </v>
   <v>       0.12784077       0.12784077       0.00000000 </v>
   <v>       0.13456923       0.13456923       0.00000000 </v>
   <v>       0.14129769       0.14129769       0.00000000 </v>
   <v>       0.14802615       0.14802615       0.00000000 </v>
   <v>       0.15475462       0.15475462       0.00000000 </v>
   <v>       0.16148308       0.16148308       0.00000000 </v>
   <v>       0.16821154       0.16821154       0.00000000 </v>
   <v>       0.17494000       0.17494000       0.00000000 </v>
   <v>       0.18166846       0.18166846       0.00000000 </v>
   <v>       0.18839692       0.18839692       0.00000000 </v>
   <v>       0.19512538       0.19512538       0.00000000 </v>
   <v>       0.20185385       0.20185385       0.00000000 </v>
   <v>       0.20858231       0.20858231       0.00000000 </v>
   <v>       0.21531077       0.21531077       0.00000000 </v>
   <v>       0.22203923       0.22203923       0.00000000 </v>
   <v>       0.22876769       0.22876769       0.00000000 </v>
   <v>       0.23549615       0.23549615       0.00000000 </v>
   <v>       0.24222462       0.24222462       0.00000000 </v>
   <v>       0.24895308       0.24895308       0.00000000 </v>
   <v>       0.25568154       0.25568154       0.00000000 </v>
   <v>       0.26241000       0.26241000       0.00000000 </v>
   <v>       0.26913846       0.26913846       0.00000000 </v>
   <v>       0.27586692       0.27586692       0.00000000 </v>
   <v>       0.28259538       0.28259538       0.00000000 </v>
   <v>       0.28259538       0.28259538       0.00000000 </v>
   <v>       0.26375569       0.29708903       0.00000000 </v>
   <v>       0.24491600       0.31158267       0.00000000 </v>
   <v>       0.22607631       0.32607631       0.00000000 </v>
   <v>       0.20723662       0.34056995       0.00000000 </v>
   <v>       0.18839692       0.35506359       0.00000000 </v>
   <v>       0.16955723       0.36955723       0.00000000 </v>
   <v>       0.15071754       0.38405087       0.00000000 </v>
   <v>       0.13187785       0.39854451       0.00000000 </v>
   <v>       0.11303815       0.41303815       0.00000000 </v>
   <v>       0.09419846       0.42753179       0.00000000 </v>
   <v>       0.07535877       0.44202544       0.00000000 </v>
   <v>       0.05651908       0.45651908       0.00000000 </v>
   <v>       0.03767938       0.47101272       0.00000000 </v>
   <v>       0.01883969       0.48550636       0.00000000 </v>
   <v>       0.00000000       0.50000000       0.00000000 </v>
   <v>       0.00000000       0.50000000       0.00000000 </v>
   <v>       0.00000000       0.50000000       0.01351351 </v>
   <v>       0.00000000       0.50000000       0.02702703 </v>
   <v>       0.00000000       0.50000000       0.04054054 </v>
   <v>       0.00000000       0.50000000       0.05405405 </v>
   <v>       0.00000000       0.50000000       0.06756757 </v>
   <v>       0.00000000       0.50000000       0.08108108 </v>
   <v>       0.00000000       0.50000000       0.09459459 </v>
   <v>       0.00000000       0.50000000       0.10810811 </v>
   <v>       0.00000000       0.50000000       0.12162162 </v>
   <v>       0.00000000       0.50000000       0.13513514 </v>
   <v>       0.00000000       0.50000000       0.14864865 </v>
   <v>       0.00000000       0.50000000       0.16216216 </v>
   <v>       0.00000000       0.50000000       0.17567568 </v>
   <v>       0.00000000       0.50000000       0.18918919 </v>
   <v>       0.00000000       0.50000000       0.20270270 </v>
   <v>       0.00000000       0.50000000       0.21621622 </v>
   <v>       0.00000000       0.50000000       0.22972973 </v>
   <v>       0.00000000       0.50000000       0.24324324 </v>
   <v>       0.00000000       0.50000000       0.25675676 </v>
   <v>       0.00000000       0.50000000       0.27027027 </v>
   <v>       0.00000000       0.50000000       0.28378378 </v>
   <v>       0.00000000       0.50000000       0.29729730 </v>
   <v>       0.00000000       0.50000000       0.31081081 </v>
   <v>       0.00000000       0.50000000       0.32432432 </v>
   <v>       0.00000000       0.50000000       0.33783784 </v>
   <v>       0.00000000       0.50000000       0.35135135 </v>
   <v>       0.00000000       0.50000000       0.36486486 </v>
   <v>       0.00000000       0.50000000       0.37837838 </v>
   <v>       0.00000000       0.50000000       0.39189189 </v>
   <v>       0.00000000       0.50000000       0.40540541 </v>
   <v>       0.00000000       0.50000000       0.41891892 </v>
   <v>       0.00000000       0.50000000       0.43243243 </v>
   <v>       0.00000000       0.50000000       0.44594595 </v>
   <v>       0.00000000       0.50000000       0.45945946 </v>
   <v>       0.00000000       0.50000000       0.47297297 </v>
   <v>       0.00000000       0.50000000       0.48648649 </v>
   <v>       0.00000000       0.50000000       0.50000000 </v>
   <v>       0.00000000       0.50000000       0.50000000 </v>
   <v>       0.01883969       0.48550636       0.50000000 </v>
   <v>       0.03767938       0.47101272       0.50000000 </v>
   <v>       0.05651908       0.45651908       0.50000000 </v>
   <v>       0.07535877       0.44202544       0.50000000 </v>
   <v>       0.09419846       0.42753179       0.50000000 </v>
   <v>       0.11303815       0.41303815       0.50000000 </v>
   <v>       0.13187785       0.39854451       0.50000000 </v>
   <v>       0.15071754       0.38405087       0.50000000 </v>
   <v>       0.16955723       0.36955723       0.50000000 </v>
   <v>       0.18839692       0.35506359       0.50000000 </v>
   <v>       0.20723662       0.34056995       0.50000000 </v>
   <v>       0.22607631       0.32607631       0.50000000 </v>
   <v>       0.24491600       0.31158267       0.50000000 </v>
   <v>       0.26375569       0.29708903       0.50000000 </v>
   <v>       0.28259538       0.28259538       0.50000000 </v>
   <v>       0.28259538       0.28259538       0.50000000 </v>
   <v>       0.27586692       0.27586692       0.50000000 </v>
   <v>       0.26913846       0.26913846       0.50000000 </v>
   <v>       0.26241000       0.26241000       0.50000000 </v>
   <v>       0.25568154       0.25568154       0.50000000 </v>
   <v>       0.24895308       0.24895308       0.50000000 </v>
   <v>       0.24222462       0.24222462       0.50000000 </v>
   <v>       0.23549615       0.23549615       0.50000000 </v>
   <v>       0.22876769       0.22876769       0.50000000 </v>
   <v>       0.22203923       0.22203923       0.50000000 </v>
   <v>       0.21531077       0.21531077       0.50000000 </v>
   <v>       0.20858231       0.20858231       0.50000000 </v>
   <v>       0.20185385       0.20185385       0.50000000 </v>
   <v>       0.19512538       0.19512538       0.50000000 </v>
   <v>       0.18839692       0.18839692       0.50000000 </v>
   <v>       0.18166846       0.18166846       0.50000000 </v>
   <v>       0.17494000       0.17494000       0.50000000 </v>
   <v>       0.16821154       0.16821154       0.50000000 </v>
   <v>       0.16148308       0.16148308       0.50000000 </v>
   <v>       0.15475462       0.15475462       0.50000000 </v>
   <v>       0.14802615       0.14802615       0.50000000 </v>
   <v>       0.14129769       0.14129769       0.50000000 </v>
   <v>       0.13456923       0.13456923       0.50000000 </v>
   <v>       0.12784077       0.12784077       0.50000000 </v>
   <v>       0.12111231       0.12111231       0.50000000 </v>
   <v>       0.11438385       0.11438385       0.50000000 </v>
   <v>       0.10765538       0.10765538       0.50000000 </v>
   <v>       0.10092692       0.10092692       0.50000000 </v>
   <v>       0.09419846       0.09419846       0.50000000 </v>
   <v>       0.08747000       0.08747000       0.50000000 </v>
   <v>       0.08074154       0.08074154       0.50000000 </v>
   <v>       0.07401308       0.07401308       0.50000000 </v>
   <v>       0.06728462       0.06728462       0.50000000 </v>
   <v>       0.06055615       0.06055615       0.50000000 </v>
   <v>       0.05382769       0.05382769       0.50000000 </v>
   <v>       0.04709923       0.04709923       0.50000000 </v>
   <v>       0.04037077       0.04037077       0.50000000 </v>
   <v>       0.03364231       0.03364231       0.50000000 </v>
   <v>       0.02691385       0.02691385       0.50000000 </v>
   <v>       0.02018538       0.02018538       0.50000000 </v>
   <v>       0.01345692       0.01345692       0.50000000 </v>
   <v>       0.00672846       0.00672846       0.50000000 </v>
   <v>       0.00000000       0.00000000       0.50000000 </v>
   <v>       0.00000000       0.00000000       0.50000000 </v>
   <v>       0.00000000       0.00000000       0.48648649 </v>
   <v>       0.00000000       0.00000000       0.47297297 </v>
   <v>       0.00000000      -0.00000000       0.45945946 </v>
   <v>       0.00000000      -0.00000000       0.44594595 </v>
   <v>       0.00000000       0.00000000       0.43243243 </v>
   <v>       0.00000000       0.00000000       0.41891892 </v>
   <v>       0.00000000       0.00000000       0.40540541 </v>
   <v>       0.00000000       0.00000000       0.39189189 </v>
   <v>       0.00000000       0.00000000       0.37837838 </v>
   <v>       0.00000000       0.00000000       0.36486486 </v>
   <v>       0.00000000       0.00000000       0.35135135 </v>
   <v>       0.00000000       0.00000000       0.33783784 </v>
   <v>       0.00000000       0.00000000       0.32432432 </v>
   <v>       0.00000000       0.00000000       0.31081081 </v>
   <v>       0.00000000       0.00000000       0.29729730 </v>
   <v>       0.00000000       0.00000000       0.28378378 </v>
   <v>       0.00000000       0.00000000       0.27027027 </v>
   <v>       0.00000000       0.00000000       0.25675676 </v>
   <v>       0.00000000       0.00000000       0.24324324 </v>
   <v>       0.00000000      -0.00000000       0.22972973 </v>
   <v>       0.00000000      -0.00000000       0.21621622 </v>
   <v>       0.00000000       0.00000000       0.20270270 </v>
   <v>       0.00000000       0.00000000       0.18918919 </v>
   <v>       0.00000000       0.00000000       0.17567568 </v>
   <v>       0.00000000       0.00000000       0.16216216 </v>
   <v>       0.00000000       0.00000000       0.14864865 </v>
   <v>       0.00000000       0.00000000       0.13513514 </v>
   <v>       0.00000000      -0.00000000       0.12162162 </v>
   <v>       0.00000000      -0.00000000       0.10810811 </v>
   <v>       0.00000000       0.00000000       0.09459459 </v>
   <v>       0.00000000       0.00000000       0.08108108 </v>
   <v>       0.00000000       0.00000000       0.06756757 </v>
   <v>       0.00000000      -0.00000000       0.05405405 </v>
   <v>       0.00000000      -0.00000000       0.04054054 </v>
   <v>      -0.00000000       0.00000000       0.02702703 </v>
   <v>      -0.00000000       0.00000000       0.01351351 </v>
   <v>       0.00000000       0.00000000       0.00000000 </v>
   <v>       0.00000000       0.00000000       0.00000000 </v>
   <v>      -0.01851852       0.01851852       0.00000000 </v>
   <v>      -0.03703704       0.03703704       0.00000000 </v>
   <v>      -0.05555556       0.05555556       0.00000000 </v>
   <v>      -0.07407407       0.07407407       0.00000000 </v>
   <v>      -0.09259259       0.09259259       0.00000000 </v>
   <v>      -0.11111111       0.11111111       0.00000000 </v>
   <v>      -0.12962963       0.12962963       0.00000000 </v>
   <v>      -0.14814815       0.14814815       0.00000000 </v>
   <v>      -0.16666667       0.16666667       0.00000000 </v>
   <v>      -0.18518519       0.18518519       0.00000000 </v>
   <v>      -0.20370370       0.20370370       0.00000000 </v>
   <v>      -0.22222222       0.22222222       0.00000000 </v>
   <v>      -0.24074074       0.24074074       0.00000000 </v>
   <v>      -0.25925926       0.25925926       0.00000000 </v>
   <v>      -0.27777778       0.27777778       0.00000000 </v>
   <v>      -0.29629630       0.29629630       0.00000000 </v>
   <v>      -0.31481481       0.31481481       0.00000000 </v>
   <v>      -0.33333333       0.33333333       0.00000000 </v>
   <v>      -0.35185185       0.35185185       0.00000000 </v>
   <v>      -0.37037037       0.37037037       0.00000000 </v>
   <v>      -0.38888889       0.38888889       0.00000000 </v>
   <v>      -0.40740741       0.40740741       0.00000000 </v>
   <v>      -0.42592593       0.42592593       0.00000000 </v>
   <v>      -0.44444444       0.44444444       0.00000000 </v>
   <v>      -0.46296296       0.46296296       0.00000000 </v>
   <v>      -0.48148148       0.48148148       0.00000000 </v>
   <v>      -0.50000000       0.50000000       0.00000000 </v>
   <v>      -0.50000000       0.50000000       0.00000000 </v>
   <v>      -0.49320611       0.50679389       0.00000000 </v>
   <v>      -0.48641221       0.51358779       0.00000000 </v>
   <v>      -0.47961832       0.52038168       0.00000000 </v>
   <v>      -0.47282442       0.52717558       0.00000000 </v>
   <v>      -0.46603053       0.53396947       0.00000000 </v>
   <v>      -0.45923663       0.54076337       0.00000000 </v>
   <v>      -0.45244274       0.54755726       0.00000000 </v>
   <v>      -0.44564885       0.55435115       0.00000000 </v>
   <v>      -0.43885495       0.56114505       0.00000000 </v>
   <v>      -0.43206106       0.56793894       0.00000000 </v>
   <v>      -0.42526716       0.57473284       0.00000000 </v>
   <v>      -0.41847327       0.58152673       0.00000000 </v>
   <v>      -0.41167937       0.58832063       0.00000000 </v>
   <v>      -0.40488548       0.59511452       0.00000000 </v>
   <v>      -0.39809159       0.60190841       0.00000000 </v>
   <v>      -0.39129769       0.60870231       0.00000000 </v>
   <v>      -0.38450380       0.61549620       0.00000000 </v>
   <v>      -0.37770990       0.62229010       0.00000000 </v>
   <v>      -0.37091601       0.62908399       0.00000000 </v>
   <v>      -0.36412212       0.63587788       0.00000000 </v>
   <v>      -0.35732822       0.64267178       0.00000000 </v>
   <v>      -0.35053433       0.64946567       0.00000000 </v>
   <v>      -0.34374043       0.65625957       0.00000000 </v>
   <v>      -0.33694654       0.66305346       0.00000000 </v>
   <v>      -0.33015264       0.66984736       0.00000000 </v>
   <v>      -0.32335875       0.67664125       0.00000000 </v>
   <v>      -0.31656486       0.68343514       0.00000000 </v>
   <v>      -0.30977096       0.69022904       0.00000000 </v>
   <v>      -0.30297707       0.69702293       0.00000000 </v>
   <v>      -0.29618317       0.70381683       0.00000000 </v>
   <v>      -0.28938928       0.71061072       0.00000000 </v>
   <v>      -0.28259538       0.71740462       0.00000000 </v>
   <v>      -0.28259538       0.71740462       0.00000000 </v>
   <v>      -0.28259538       0.71740462       0.01351351 </v>
   <v>      -0.28259538       0.71740462       0.02702703 </v>
   <v>      -0.28259538       0.71740462       0.04054054 </v>
   <v>      -0.28259538       0.71740462       0.05405405 </v>
   <v>      -0.28259538       0.71740462       0.06756757 </v>
   <v>      -0.28259538       0.71740462       0.08108108 </v>
   <v>      -0.28259538       0.71740462       0.09459459 </v>
   <v>      -0.28259538       0.71740462       0.10810811 </v>
   <v>      -0.28259538       0.71740462       0.12162162 </v>
   <v>      -0.28259538       0.71740462       0.13513514 </v>
   <v>      -0.28259538       0.71740462       0.14864865 </v>
   <v>      -0.28259538       0.71740462       0.16216216 </v>
   <v>      -0.28259538       0.71740462       0.17567568 </v>
   <v>      -0.28259538       0.71740462       0.18918919 </v>
   <v>      -0.28259538       0.71740462       0.20270270 </v>
   <v>      -0.28259538       0.71740462       0.21621622 </v>
   <v>      -0.28259538       0.71740462       0.22972973 </v>
   <v>      -0.28259538       0.71740462       0.24324324 </v>
   <v>      -0.28259538       0.71740462       0.25675676 </v>
   <v>      -0.28259538       0.71740462       0.27027027 </v>
   <v>      -0.28259538       0.71740462       0.28378378 </v>
   <v>      -0.28259538       0.71740462       0.29729730 </v>
   <v>      -0.28259538       0.71740462       0.31081081 </v>
   <v>      -0.28259538       0.71740462       0.32432432 </v>
   <v>      -0.28259538       0.71740462       0.33783784 </v>
   <v>      -0.28259538       0.71740462       0.35135135 </v>
   <v>      -0.28259538       0.71740462       0.36486486 </v>
   <v>      -0.28259538       0.71740462       0.37837838 </v>
   <v>      -0.28259538       0.71740462       0.39189189 </v>
   <v>      -0.28259538       0.71740462       0.40540541 </v>
   <v>      -0.28259538       0.71740462       0.41891892 </v>
   <v>      -0.28259538       0.71740462       0.43243243 </v>
   <v>      -0.28259538       0.71740462       0.44594595 </v>
   <v>      -0.28259538       0.71740462       0.45945946 </v>
   <v>      -0.28259538       0.71740462       0.47297297 </v>
   <v>      -0.28259538       0.71740462       0.48648649 </v>
   <v>      -0.28259538       0.71740462       0.50000000 </v>
   <v>      -0.28259538       0.71740462       0.50000000 </v>
   <v>      -0.28938928       0.71061072       0.50000000 </v>
   <v>      -0.29618317       0.70381683       0.50000000 </v>
   <v>      -0.30297707       0.69702293       0.50000000 </v>
   <v>      -0.30977096       0.69022904       0.50000000 </v>
   <v>      -0.31656486       0.68343514       0.50000000 </v>
   <v>      -0.32335875       0.67664125       0.50000000 </v>
   <v>      -0.33015264       0.66984736       0.50000000 </v>
   <v>      -0.33694654       0.66305346       0.50000000 </v>
   <v>      -0.34374043       0.65625957       0.50000000 </v>
   <v>      -0.35053433       0.64946567       0.50000000 </v>
   <v>      -0.35732822       0.64267178       0.50000000 </v>
   <v>      -0.36412212       0.63587788       0.50000000 </v>
   <v>      -0.37091601       0.62908399       0.50000000 </v>
   <v>      -0.37770990       0.62229010       0.50000000 </v>
   <v>      -0.38450380       0.61549620       0.50000000 </v>
   <v>      -0.39129769       0.60870231       0.50000000 </v>
   <v>      -0.39809159       0.60190841       0.50000000 </v>
   <v>      -0.40488548       0.59511452       0.50000000 </v>
   <v>      -0.41167937       0.58832063       0.50000000 </v>
   <v>      -0.41847327       0.58152673       0.50000000 </v>
   <v>      -0.42526716       0.57473284       0.50000000 </v>
   <v>      -0.43206106       0.56793894       0.50000000 </v>
   <v>      -0.43885495       0.56114505       0.50000000 </v>
   <v>      -0.44564885       0.55435115       0.50000000 </v>
   <v>      -0.45244274       0.54755726       0.50000000 </v>
   <v>      -0.45923663       0.54076337       0.50000000 </v>
   <v>      -0.46603053       0.53396947       0.50000000 </v>
   <v>      -0.47282442       0.52717558       0.50000000 </v>
   <v>      -0.47961832       0.52038168       0.50000000 </v>
   <v>      -0.48641221       0.51358779       0.50000000 </v>
   <v>      -0.49320611       0.50679389       0.50000000 </v>
   <v>      -0.50000000       0.50000000       0.50000000 </v>
   <v>      -0.50000000       0.50000000       0.50000000 </v>
   <v>      -0.50000000       0.50000000       0.48648649 </v>
   <v>      -0.50000000       0.50000000       0.47297297 </v>
   <v>      -0.50000000       0.50000000       0.45945946 </v>
   <v>      -0.50000000       0.50000000       0.44594595 </v>
   <v>      -0.50000000       0.50000000       0.43243243 </v>
   <v>      -0.50000000       0.50000000       0.41891892 </v>
   <v>      -0.50000000       0.50000000       0.40540541 </v>
   <v>      -0.50000000       0.50000000       0.39189189 </v>
   <v>      -0.50000000       0.50000000       0.37837838 </v>
   <v>      -0.50000000       0.50000000       0.36486486 </v>
   <v>      -0.50000000       0.50000000       0.35135135 </v>
   <v>      -0.50000000       0.50000000       0.33783784 </v>
   <v>      -0.50000000       0.50000000       0.32432432 </v>
   <v>      -0.50000000       0.50000000       0.31081081 </v>
   <v>      -0.50000000       0.50000000       0.29729730 </v>
   <v>      -0.50000000       0.50000000       0.28378378 </v>
   <v>      -0.50000000       0.50000000       0.27027027 </v>
   <v>      -0.50000000       0.50000000       0.25675676 </v>
   <v>      -0.50000000       0.50000000       0.24324324 </v>
   <v>      -0.50000000       0.50000000       0.22972973 </v>
   <v>      -0.50000000       0.50000000       0.21621622 </v>
   <v>      -0.50000000       0.50000000       0.20270270 </v>
   <v>      -0.50000000       0.50000000       0.18918919 </v>
   <v>      -0.50000000       0.50000000       0.17567568 </v>
   <v>      -0.50000000       0.50000000       0.16216216 </v>
   <v>      -0.50000000       0.50000000       0.14864865 </v>
   <v>      -0.50000000       0.50000000       0.13513514 </v>
   <v>      -0.50000000       0.50000000       0.12162162 </v>
   <v>      -0.50000000       0.50000000       0.10810811 </v>
   <v>      -0.50000000       0.50000000       0.09459459 </v>
   <v>      -0.50000000       0.50000000       0.08108108 </v>
   <v>      -0.50000000       0.50000000       0.06756757 </v>
   <v>      -0.50000000       0.50000000       0.05405405 </v>
   <v>      -0.50000000       0.50000000       0.04054054 </v>
   <v>      -0.50000000       0.50000000       0.02702703 </v>
   <v>      -0.50000000       0.50000000       0.01351351 </v>
   <v>      -0.50000000       0.50000000       0.00000000 </v>
   <v>       0.00000000       0.00000000       0.50000000 </v>
   <v>      -0.01851852       0.01851852       0.50000000 </v>
   <v>      -0.03703704       0.03703704       0.50000000 </v>
   <v>      -0.05555556       0.05555556       0.50000000 </v>
   <v>      -0.07407407       0.07407407       0.50000000 </v>
   <v>      -0.09259259       0.09259259       0.50000000 </v>
   <v>      -0.11111111       0.11111111       0.50000000 </v>
   <v>      -0.12962963       0.12962963       0.50000000 </v>
   <v>      -0.14814815       0.14814815       0.50000000 </v>
   <v>      -0.16666667       0.16666667       0.50000000 </v>
   <v>      -0.18518519       0.18518519       0.50000000 </v>
   <v>      -0.20370370       0.20370370       0.50000000 </v>
   <v>      -0.22222222       0.22222222       0.50000000 </v>
   <v>      -0.24074074       0.24074074       0.50000000 </v>
   <v>      -0.25925926       0.25925926       0.50000000 </v>
   <v>      -0.27777778       0.27777778       0.50000000 </v>
   <v>      -0.29629630       0.29629630       0.50000000 </v>
   <v>      -0.31481481       0.31481481       0.50000000 </v>
   <v>      -0.33333333       0.33333333       0.50000000 </v>
   <v>      -0.35185185       0.35185185       0.50000000 </v>
   <v>      -0.37037037       0.37037037       0.50000000 </v>
   <v>      -0.38888889       0.38888889       0.50000000 </v>
   <v>      -0.40740741       0.40740741       0.50000000 </v>
   <v>      -0.42592593       0.42592593       0.50000000 </v>
   <v>      -0.44444444       0.44444444       0.50000000 </v>
   <v>      -0.46296296       0.46296296       0.50000000 </v>
   <v>      -0.48148148       0.48148148       0.50000000 </v>
   <v>      -0.50000000       0.50000000       0.50000000 </v>
  </varray>
  <varray name="weights" >
   <v>       0.00255102 </v>
   <v>       0.00255102 </v>
   <v>       0.00255102 </v>
   <v>       0.00255102 </v>
   <v>       0.00255102 </v>
   <v>       0.00255102 </v>
   <v>       0.00255102 </v>
   <v>       0.00255102 </v>
   <v>       0.00255102 </v>
   <v>       0.00255102 </v>
   <v>       0.00255102 </v>
   <v>       0.00255102 </v>
   <v>       0.00255102 </v>
   <v>       0.00255102 </v>
   <v>       0.00255102 </v>
   <v>       0.00255102 </v>
   <v>       0.00255102 </v>
   <v>       0.00255102 </v>
   <v>       0.00255102 </v>
   <v>       0.00255102 </v>
   <v>       0.00255102 </v>
   <v>       0.00255102 </v>
   <v>       0.00255102 </v>
   <v>       0.00255102 </v>
   <v>       0.00255102 </v>
   <v>       0.00255102 </v>
   <v>       0.00255102 </v>
   <v>       0.00255102 </v>
   <v>       0.00255102 </v>
   <v>       0.00255102 </v>
   <v>       0.00255102 </v>
   <v>       0.00255102 </v>
   <v>       0.00255102 </v>
   <v>       0.00255102 </v>
   <v>       0.00255102 </v>
   <v>       0.00255102 </v>
   <v>       0.00255102 </v>
   <v>       0.00255102 </v>
   <v>       0.00255102 </v>
   <v>       0.00255102 </v>
   <v>       0.00255102 </v>
   <v>       0.00255102 </v>
   <v>       0.00255102 </v>
   <v>       0.00255102 </v>
   <v>       0.00255102 </v>
   <v>       0.00255102 </v>
   <v>       0.00255102 </v>
   <v>       0.00255102 </v>
   <v>       0.00255102 </v>
   <v>       0.00255102 </v>
   <v>       0.00255102 </v>
   <v>       0.00255102 </v>
   <v>       0.00255102 </v>
   <v>       0.00255102 </v>
   <v>       0.00255102 </v>
   <v>       0.00255102 </v>
   <v>       0.00255102 </v>
   <v>       0.00255102 </v>
   <v>       0.00255102 </v>
   <v>       0.00255102 </v>
   <v>       0.00255102 </v>
   <v>       0.00255102 </v>
   <v>       0.00255102 </v>
   <v>       0.00255102 </v>
   <v>       0.00255102 </v>
   <v>       0.00255102 </v>
   <v>       0.00255102 </v>
   <v>       0.00255102 </v>
   <v>       0.00255102 </v>
   <v>       0.00255102 </v>
   <v>       0.00255102 </v>
   <v>       0.00255102 </v>
   <v>       0.00255102 </v>
   <v>       0.00255102 </v>
   <v>       0.00255102 </v>
   <v>       0.00255102 </v>
   <v>       0.00255102 </v>
   <v>       0.00255102 </v>
   <v>       0.00255102 </v>
   <v>       0.00255102 </v>
   <v>       0.00255102 </v>
   <v>       0.00255102 </v>
   <v>       0.00255102 </v>
   <v>       0.00255102 </v>
   <v>       0.00255102 </v>
   <v>       0.00255102 </v>
   <v>       0.00255102 </v>
   <v>       0.00255102 </v>
   <v>       0.00255102 </v>
   <v>       0.00255102 </v>
   <v>       0.00255102 </v>
   <v>       0.00255102 </v>
   <v>       0.00255102 </v>
   <v>       0.00255102 </v>
   <v>       0.00255102 </v>
   <v>       0.00255102 </v>
   <v>       0.00255102 </v>
   <v>       0.00255102 </v>
   <v>       0.00255102 </v>
   <v>       0.00255102 </v>
   <v>       0.00255102 </v>
   <v>       0.00255102 </v>
   <v>       0.00255102 </v>
   <v>       0.00255102 </v>
   <v>       0.00255102 </v>
   <v>       0.00255102 </v>
   <v>       0.00255102 </v>
   <v>       0.00255102 </v>
   <v>       0.00255102 </v>
   <v>       0.00255102 </v>
   <v>       0.00255102 </v>
   <v>       0.00255102 </v>
   <v>       0.00255102 </v>
   <v>       0.00255102 </v>
   <v>       0.00255102 </v>
   <v>       0.00255102 </v>
   <v>       0.00255102 </v>
   <v>       0.00255102 </v>
   <v>       0.00255102 </v>
   <v>       0.00255102 </v>
   <v>       0.00255102 </v>
   <v>       0.00255102 </v>
   <v>       0.00255102 </v>
   <v>       0.00255102 </v>
   <v>       0.00255102 </v>
   <v>       0.00255102 </v>
   <v>       0.00255102 </v>
   <v>       0.00255102 </v>
   <v>       0.00255102 </v>
   <v>       0.00255102 </v>
   <v>       0.00255102 </v>
   <v>       0.00255102 </v>
   <v>       0.00255102 </v>
   <v>       0.00255102 </v>
   <v>       0.00255102 </v>
   <v>       0.00255102 </v>
   <v>       0.00255102 </v>
   <v>       0.00255102 </v>
   <v>       0.00255102 </v>
   <v>       0.00255102 </v>
   <v>       0.00255102 </v>
   <v>       0.00255102 </v>
   <v>       0.00255102 </v>
   <v>       0.00255102 </v>
   <v>       0.00255102 </v>
   <v>       0.00255102 </v>
   <v>       0.00255102 </v>
   <v>       0.00255102 </v>
   <v>       0.00255102 </v>
   <v>       0.00255102 </v>
   <v>       0.00255102 </v>
   <v>       0.00255102 </v>
   <v>       0.00255102 </v>
   <v>       0.00255102 </v>
   <v>       0.00255102 </v>
   <v>       0.00255102 </v>
   <v>       0.00255102 </v>
   <v>       0.00255102 </v>
   <v>       0.00255102 </v>
   <v>       0.00255102 </v>
   <v>       0.00255102 </v>
   <v>       0.00255102 </v>
   <v>       0.00255102 </v>
   <v>       0.00255102 </v>
   <v>       0.00255102 </v>
   <v>       0.00255102 </v>
   <v>       0.00255102 </v>
   <v>       0.00255102 </v>
   <v>       0.00255102 </v>
   <v>       0.00255102 </v>
   <v>       0.00255102 </v>
   <v>       0.00255102 </v>
   <v>       0.00255102 </v>
   <v>       0.00255102 </v>
   <v>       0.00255102 </v>
   <v>       0.00255102 </v>
   <v>       0.00255102 </v>
   <v>       0.00255102 </v>
   <v>       0.00255102 </v>
   <v>       0.00255102 </v>
   <v>       0.00255102 </v>
   <v>       0.00255102 </v>
   <v>       0.00255102 </v>
   <v>       0.00255102 </v>
   <v>       0.00255102 </v>
   <v>       0.00255102 </v>
   <v>       0.00255102 </v>
   <v>       0.00255102 </v>
   <v>       0.00255102 </v>
   <v>       0.00255102 </v>
   <v>       0.00255102 </v>
   <v>       0.00255102 </v>
   <v>       0.00255102 </v>
   <v>       0.00255102 </v>
   <v>       0.00255102 </v>
   <v>       0.00255102 </v>
   <v>       0.00255102 </v>
   <v>       0.00255102 </v>
   <v>       0.00255102 </v>
   <v>       0.00255102 </v>
   <v>       0.00255102 </v>
   <v>       0.00255102 </v>
   <v>       0.00255102 </v>
   <v>       0.00255102 </v>
   <v>       0.00255102 </v>
   <v>       0.00255102 </v>
   <v>       0.00255102 </v>
   <v>       0.00255102 </v>
   <v>       0.00255102 </v>
   <v>       0.00255102 </v>
   <v>       0.00255102 </v>
   <v>       0.00255102 </v>
   <v>       0.00255102 </v>
   <v>       0.00255102 </v>
   <v>       0.00255102 </v>
   <v>       0.00255102 </v>
   <v>       0.00255102 </v>
   <v>       0.00255102 </v>
   <v>       0.00255102 </v>
   <v>       0.00255102 </v>
   <v>       0.00255102 </v>
   <v>       0.00255102 </v>
   <v>       0.00255102 </v>
   <v>       0.00255102 </v>
   <v>       0.00255102 </v>
   <v>       0.00255102 </v>
   <v>       0.00255102 </v>
   <v>       0.00255102 </v>
   <v>       0.00255102 </v>
   <v>       0.00255102 </v>
   <v>       0.00255102 </v>
   <v>       0.00255102 </v>
   <v>       0.00255102 </v>
   <v>       0.00255102 </v>
   <v>       0.00255102 </v>
   <v>       0.00255102 </v>
   <v>       0.00255102 </v>
   <v>       0.00255102 </v>
   <v>       0.00255102 </v>
   <v>       0.00255102 </v>
   <v>       0.00255102 </v>
   <v>       0.00255102 </v>
   <v>       0.00255102 </v>
   <v>       0.00255102 </v>
   <v>       0.00255102 </v>
   <v>       0.00255102 </v>
   <v>       0.00255102 </v>
   <v>       0.00255102 </v>
   <v>       0.00255102 </v>
   <v>       0.00255102 </v>
   <v>       0.00255102 </v>
   <v>       0.00255102 </v>
   <v>       0.00255102 </v>
   <v>       0.00255102 </v>
   <v>       0.00255102 </v>
   <v>       0.00255102 </v>
   <v>       0.00255102 </v>
   <v>       0.00255102 </v>
   <v>       0.00255102 </v>
   <v>       0.00255102 </v>
   <v>       0.00255102 </v>
   <v>       0.00255102 </v>
   <v>       0.00255102 </v>
   <v>       0.00255102 </v>
   <v>       0.00255102 </v>
   <v>       0.00255102 </v>
   <v>       0.00255102 </v>
   <v>       0.00255102 </v>
   <v>       0.00255102 </v>
   <v>       0.00255102 </v>
   <v>       0.00255102 </v>
   <v>       0.00255102 </v>
   <v>       0.00255102 </v>
   <v>       0.00255102 </v>
   <v>       0.00255102 </v>
   <v>       0.00255102 </v>
   <v>       0.00255102 </v>
   <v>       0.00255102 </v>
   <v>       0.00255102 </v>
   <v>       0.00255102 </v>
   <v>       0.00255102 </v>
   <v>       0.00255102 </v>
   <v>       0.00255102 </v>
   <v>       0.00255102 </v>
   <v>       0.00255102 </v>
   <v>       0.00255102 </v>
   <v>       0.00255102 </v>
   <v>       0.00255102 </v>
   <v>       0.00255102 </v>
   <v>       0.00255102 </v>
   <v>       0.00255102 </v>
   <v>       0.00255102 </v>
   <v>       0.00255102 </v>
   <v>       0.00255102 </v>
   <v>       0.00255102 </v>
   <v>       0.00255102 </v>
   <v>       0.00255102 </v>
   <v>       0.00255102 </v>
   <v>       0.00255102 </v>
   <v>       0.00255102 </v>
   <v>       0.00255102 </v>
   <v>       0.00255102 </v>
   <v>       0.00255102 </v>
   <v>       0.00255102 </v>
   <v>       0.00255102 </v>
   <v>       0.00255102 </v>
   <v>       0.00255102 </v>
   <v>       0.00255102 </v>
   <v>       0.00255102 </v>
   <v>       0.00255102 </v>
   <v>       0.00255102 </v>
   <v>       0.00255102 </v>
   <v>       0.00255102 </v>
   <v>       0.00255102 </v>
   <v>       0.00255102 </v>
   <v>       0.00255102 </v>
   <v>       0.00255102 </v>
   <v>       0.00255102 </v>
   <v>       0.00255102 </v>
   <v>       0.00255102 </v>
   <v>       0.00255102 </v>
   <v>       0.00255102 </v>
   <v>       0.00255102 </v>
   <v>       0.00255102 </v>
   <v>       0.00255102 </v>
   <v>       0.00255102 </v>
   <v>       0.00255102 </v>
   <v>       0.00255102 </v>
   <v>       0.00255102 </v>
   <v>       0.00255102 </v>
   <v>       0.00255102 </v>
   <v>       0.00255102 </v>
   <v>       0.00255102 </v>
   <v>       0.00255102 </v>
   <v>       0.00255102 </v>
   <v>       0.00255102 </v>
   <v>       0.00255102 </v>
   <v>       0.00255102 </v>
   <v>       0.00255102 </v>
   <v>       0.00255102 </v>
   <v>       0.00255102 </v>
   <v>       0.00255102 </v>
   <v>       0.00255102 </v>
   <v>       0.00255102 </v>
   <v>       0.00255102 </v>
   <v>       0.00255102 </v>
   <v>       0.00255102 </v>
   <v>       0.00255102 </v>
   <v>       0.00255102 </v>
   <v>       0.00255102 </v>
   <v>       0.00255102 </v>
   <v>       0.00255102 </v>
   <v>       0.00255102 </v>
   <v>       0.00255102 </v>
   <v>       0.00255102 </v>
   <v>       0.00255102 </v>
   <v>       0.00255102 </v>
   <v>       0.00255102 </v>
   <v>       0.00255102 </v>
   <v>       0.00255102 </v>
   <v>       0.00255102 </v>
   <v>       0.00255102 </v>
   <v>       0.00255102 </v>
   <v>       0.00255102 </v>
   <v>       0.00255102 </v>
   <v>       0.00255102 </v>
   <v>       0.00255102 </v>
   <v>       0.00255102 </v>
   <v>       0.00255102 </v>
   <v>       0.00255102 </v>
   <v>       0.00255102 </v>
   <v>       0.00255102 </v>
   <v>       0.00255102 </v>
   <v>       0.00255102 </v>
   <v>       0.00255102 </v>
   <v>       0.00255102 </v>
   <v>       0.00255102 </v>
   <v>       0.00255102 </v>
   <v>       0.00255102 </v>
   <v>       0.00255102 </v>
   <v>       0.00255102 </v>
   <v>       0.00255102 </v>
   <v>       0.00255102 </v>
   <v>       0.00255102 </v>
   <v>       0.00255102 </v>
   <v>       0.00255102 </v>
   <v>       0.00255102 </v>
   <v>       0.00255102 </v>
   <v>       0.00255102 </v>
   <v>       0.00255102 </v>
   <v>       0.00255102 </v>
   <v>       0.00255102 </v>
  </varray>
 </kpoints>
 <parameters>
  <separator name="general" >
   <i type="string" name="SYSTEM">SnSe</i>
   <i type="logical" name="LCOMPAT"> F  </i>
  </separator>
  <separator name="electronic" >
   <i type="string" name="PREC">accura</i>
   <i name="ENMAX">    600.00000000</i>
   <i name="ENAUG">    446.84200000</i>
   <i name="EDIFF">      0.00000010</i>
   <i type="int" name="IALGO">    58</i>
   <i type="int" name="IWAVPR">    10</i>
   <i type="int" name="NBANDS">    48</i>
   <i name="NELECT">     40.00000000</i>
   <i type="int" name="TURBO">     0</i>
   <i type="int" name="IRESTART">     0</i>
   <i type="int" name="NREBOOT">     0</i>
   <i type="int" name="NMIN">     0</i>
   <i name="EREF">      0.00000000</i>
   <separator name="electronic smearing" >
    <i type="int" name="ISMEAR">     0</i>
    <i name="SIGMA">      0.01000000</i>
    <i name="KSPACING">      0.50000000</i>
    <i type="logical" name="KGAMMA"> T  </i>
   </separator>
   <separator name="electronic projectors" >
    <i type="logical" name="LREAL"> F  </i>
    <v name="ROPT">      0.00000000      0.00000000</v>
    <i type="int" name="LMAXPAW">  -100</i>
    <i type="int" name="LMAXMIX">     4</i>
    <i type="logical" name="NLSPLINE"> F  </i>
   </separator>
   <separator name="electronic startup" >
    <i type="int" name="ISTART">     0</i>
    <i type="int" name="ICHARG">    11</i>
    <i type="int" name="INIWAV">     1</i>
   </separator>
   <separator name="electronic spin" >
    <i type="int" name="ISPIN">     1</i>
    <i type="logical" name="LNONCOLLINEAR"> F  </i>
    <v name="MAGMOM">      1.00000000      1.00000000      1.00000000      1.00000000</v>
    <i name="NUPDOWN">     -1.00000000</i>
    <i type="logical" name="LSORBIT"> F  </i>
    <v name="SAXIS">      0.00000000      0.00000000      1.00000000</v>
    <i type="logical" name="LSPIRAL"> F  </i>
    <v name="QSPIRAL">      0.00000000      0.00000000      0.00000000</v>
    <i type="logical" name="LZEROZ"> F  </i>
   </separator>
   <separator name="electronic exchange-correlation" >
    <i type="logical" name="LASPH"> F  </i>
    <i type="logical" name="LMETAGGA"> F  </i>
   </separator>
   <separator name="electronic convergence" >
    <i type="int" name="NELM">    60</i>
    <i type="int" name="NELMDL">     0</i>
    <i type="int" name="NELMIN">     2</i>
    <i name="ENINI">    600.00000000</i>
    <separator name="electronic convergence detail" >
     <i type="logical" name="LDIAG"> T  </i>
     <i type="logical" name="LSUBROT"> F  </i>
     <i name="WEIMIN">      0.00000000</i>
     <i name="EBREAK">      0.00000000</i>
     <i name="DEPER">      0.30000000</i>
     <i type="int" name="NRMM">     4</i>
     <i name="TIME">      0.40000000</i>
    </separator>
   </separator>
   <separator name="electronic mixer" >
    <i name="AMIX">      0.40000000</i>
    <i name="BMIX">      1.00000000</i>
    <i name="AMIN">      0.10000000</i>
    <i name="AMIX_MAG">      1.60000000</i>
    <i name="BMIX_MAG">      1.00000000</i>
    <separator name="electronic mixer details" >
     <i type="int" name="IMIX">     4</i>
     <i type="logical" name="MIXFIRST"> F  </i>
     <i type="int" name="MAXMIX">   -45</i>
     <i name="WC">    100.00000000</i>
     <i type="int" name="INIMIX">     1</i>
     <i type="int" name="MIXPRE">     1</i>
     <i type="int" name="MREMOVE">     5</i>
    </separator>
   </separator>
   <separator name="electronic dipolcorrection" >
    <i type="logical" name="LDIPOL"> F  </i>
    <i type="logical" name="LMONO"> F  </i>
    <i type="int" name="IDIPOL">     0</i>
    <i name="EPSILON">      1.00000000</i>
    <v name="DIPOL">   -100.00000000   -100.00000000   -100.00000000</v>
    <i name="EFIELD">      0.00000000</i>
   </separator>
  </separator>
  <separator name="grids" >
   <i type="int" name="NGX">    50</i>
   <i type="int" name="NGY">    50</i>
   <i type="int" name="NGZ">    36</i>
   <i type="int" name="NGXF">   100</i>
   <i type="int" name="NGYF">   100</i>
   <i type="int" name="NGZF">    72</i>
   <i type="logical" name="ADDGRID"> T  </i>
  </separator>
  <separator name="ionic" >
   <i type="int" name="NSW">     0</i>
   <i type="int" name="IBRION">    -1</i>
   <i type="int" name="MDALGO">     0</i>
   <i type="int" name="ISIF">     2</i>
   <i name="PSTRESS">      0.00000000</i>
   <i name="EDIFFG">     -0.00100000</i>
   <i type="int" name="NFREE">     0</i>
   <i name="POTIM">      0.50000000</i>
   <i name="SMASS">     -3.00000000</i>
   <i name="SCALEE">      1.00000000</i>
  </separator>
  <separator name="ionic md" >
   <i name="TEBEG">      0.00010000</i>
   <i name="TEEND">      0.00010000</i>
   <i type="int" name="NBLOCK">     1</i>
   <i type="int" name="KBLOCK">     1</i>
   <i type="int" name="NPACO">   256</i>
   <i name="APACO">     16.00000000</i>
  </separator>
  <separator name="symmetry" >
   <i type="int" name="ISYM">     2</i>
   <i name="SYMPREC">      0.00001000</i>
  </separator>
  <separator name="dos" >
   <i type="int" name="LORBIT">     0</i>
   <v name="RWIGS">     -1.00000000     -1.00000000</v>
   <i type="int" name="NEDOS">   301</i>
   <i name="EMIN">     10.00000000</i>
   <i name="EMAX">    -10.00000000</i>
   <i name="EFERMI">      0.00000000</i>
  </separator>
  <separator name="writing" >
   <i type="int" name="NWRITE">     2</i>
   <i type="logical" name="LWAVE"> F  </i>
   <i type="logical" name="LDOWNSAMPLE"> F  </i>
   <i type="logical" name="LCHARG"> F  </i>
   <i type="logical" name="LPARD"> F  </i>
   <i type="logical" name="LVTOT"> F  </i>
   <i type="logical" name="LVHAR"> F  </i>
   <i type="logical" name="LELF"> F  </i>
   <i type="logical" name="LOPTICS"> F  </i>
   <v name="STM">      0.00000000      0.00000000      0.00000000      0.00000000      0.00000000      0.00000000      0.00000000</v>
  </separator>
  <separator name="performance" >
   <i type="int" name="NPAR">     4</i>
   <i type="int" name="NSIM">     4</i>
   <i type="int" name="NBLK">    -1</i>
   <i type="logical" name="LPLANE"> T  </i>
   <i type="logical" name="LSCALAPACK"> T  </i>
   <i type="logical" name="LSCAAWARE"> F  </i>
   <i type="logical" name="LSCALU"> F  </i>
   <i type="logical" name="LASYNC"> F  </i>
   <i type="logical" name="LORBITALREAL"> F  </i>
  </separator>
  <separator name="miscellaneous" >
   <i type="int" name="IDIOT">     3</i>
   <i type="int" name="ISPECIAL">     0</i>
   <i type="logical" name="LMUSIC"> F  </i>
   <v name="POMASS">    118.71000000     78.96000000</v>
   <v name="DARWINR">      0.00000000      0.00000000</v>
   <v name="DARWINV">      1.00000000      1.00000000</v>
   <i type="logical" name="LCORR"> T  </i>
  </separator>
  <i type="logical" name="GGA_COMPAT"> T  </i>
  <i type="logical" name="LBERRY"> F  </i>
  <i type="int" name="ICORELEVEL">     0</i>
  <i type="logical" name="LDAU"> F  </i>
  <i type="int" name="I_CONSTRAINED_M">     0</i>
  <separator name="electronic exchange-correlation" >
   <i type="string" name="GGA">--</i>
   <i type="int" name="VOSKOWN">     0</i>
   <i type="logical" name="LHFCALC"> F  </i>
   <i type="string" name="PRECFOCK"></i>
   <i type="logical" name="LSYMGRAD"> F  </i>
   <i type="logical" name="LHFONE"> F  </i>
   <i type="logical" name="LRHFCALC"> F  </i>
   <i type="logical" name="LTHOMAS"> F  </i>
   <i type="logical" name="LMODELHF"> F  </i>
   <i name="ENCUT4O">     -1.00000000</i>
   <i type="int" name="EXXOEP">     0</i>
   <i type="int" name="FOURORBIT">     0</i>
   <i name="AEXX">      0.00000000</i>
   <i name="HFALPHA">      0.00000000</i>
   <i name="MCALPHA">      0.00000000</i>
   <i name="ALDAX">      1.00000000</i>
   <i name="AGGAX">      1.00000000</i>
   <i name="ALDAC">      1.00000000</i>
   <i name="AGGAC">      1.00000000</i>
   <i type="int" name="NKREDX">     1</i>
   <i type="int" name="NKREDY">     1</i>
   <i type="int" name="NKREDZ">     1</i>
   <i type="logical" name="SHIFTRED"> F  </i>
   <i type="logical" name="ODDONLY"> F  </i>
   <i type="logical" name="EVENONLY"> F  </i>
   <i type="int" name="LMAXFOCK">     0</i>
   <i type="int" name="NMAXFOCKAE">     0</i>
   <i type="logical" name="LFOCKAEDFT"> F  </i>
   <i name="HFSCREEN">      0.00000000</i>
   <i name="HFSCREENC">      0.00000000</i>
   <i type="int" name="NBANDSGWLOW">     0</i>
  </separator>
  <separator name="vdW DFT" >
   <i type="logical" name="LUSE_VDW"> F  </i>
   <i name="Zab_VDW">     -0.84910000</i>
   <i name="PARAM1">      0.12340000</i>
   <i name="PARAM2">      1.00000000</i>
   <i name="PARAM3">      0.00000000</i>
  </separator>
  <separator name="model GW" >
   <i type="int" name="MODEL_GW">     0</i>
   <i name="MODEL_EPS0">     16.12513382</i>
   <i name="MODEL_ALPHA">      1.00000000</i>
  </separator>
  <separator name="linear response parameters" >
   <i type="logical" name="LEPSILON"> F  </i>
   <i type="logical" name="LRPA"> F  </i>
   <i type="logical" name="LNABLA"> F  </i>
   <i type="logical" name="LVEL"> F  </i>
   <i type="int" name="KINTER">     0</i>
   <i name="CSHIFT">      0.10000000</i>
   <i name="OMEGAMAX">     -1.00000000</i>
   <i name="DEG_THRESHOLD">      0.00200000</i>
   <i name="RTIME">     -0.10000000</i>
   <i name="WPLASMAI">      0.00000000</i>
   <v name="DFIELD">      0.00000000      0.00000000      0.00000000</v>
   <v name="WPLASMA">      0.00000000      0.00000000      0.00000000      0.00000000      0.00000000      0.00000000      0.00000000      0.00000000      0.00000000</v>
  </separator>
  <separator name="orbital magnetization" >
   <i type="logical" name="NUCIND"> F  </i>
   <v name="MAGPOS">      0.00000000      0.00000000      0.00000000</v>
   <i type="logical" name="LNICSALL"> T  </i>
   <i type="logical" name="ORBITALMAG"> F  </i>
   <i type="logical" name="LMAGBLOCH"> F  </i>
   <i type="logical" name="LCHIMAG"> F  </i>
   <i type="logical" name="LGAUGE"> T  </i>
   <i type="int" name="MAGATOM">     0</i>
   <v name="MAGDIPOL">      0.00000000      0.00000000      0.00000000</v>
   <v name="AVECCONST">      0.00000000      0.00000000      0.00000000</v>
  </separator>
  <separator name="response functions" >
   <i type="logical" name="LADDER"> F  </i>
   <i type="logical" name="LRPAFORCE"> F  </i>
   <i type="logical" name="LFXC"> F  </i>
   <i type="logical" name="LHARTREE"> T  </i>
   <i type="int" name="IBSE">     0</i>
   <v type="int" name="KPOINT">    -1     0     0     0</v>
   <i type="logical" name="LTCTE"> F  </i>
   <i type="logical" name="LTETE"> F  </i>
   <i type="logical" name="LTRIPLET"> F  </i>
   <i type="logical" name="LFXCEPS"> F  </i>
   <i type="logical" name="LFXHEG"> F  </i>
   <i type="int" name="NATURALO">     2</i>
   <i type="logical" name="L2ORDER"> F  </i>
   <i type="logical" name="LMP2LT"> F  </i>
   <i type="logical" name="LUSEW"> F  </i>
   <i name="ENCUTGW">     -2.00000000</i>
   <i name="ENCUTGWSOFT">     -2.00000000</i>
   <i name="ENCUTLF">     -1.00000000</i>
   <i type="int" name="LMAXMP2">    -1</i>
   <i name="SCISSOR">      0.00000000</i>
   <i type="int" name="NOMEGA">     0</i>
   <i type="int" name="NOMEGAR">     0</i>
   <i type="int" name="NBANDSGW">    -1</i>
   <i type="int" name="NBANDSO">    -1</i>
   <i type="int" name="NBANDSV">    -1</i>
   <i type="int" name="NELM">     1</i>
   <i type="int" name="NELMHF">     1</i>
   <i type="int" name="DIM">     3</i>
   <i type="int" name="ANTIRES">     0</i>
   <i name="OMEGAMAX">    -30.00000000</i>
   <i name="OMEGAMIN">    -30.00000000</i>
   <i name="OMEGATL">   -200.00000000</i>
   <i type="int" name="OMEGAGRID">   140</i>
   <i name="CSHIFT">     -0.10000000</i>
   <i type="logical" name="SELFENERGY"> F  </i>
   <i type="logical" name="LSPECTRAL"> F  </i>
   <i type="logical" name="LSPECTRALGW"> F  </i>
   <i type="logical" name="LSINGLES"> F  </i>
   <i type="logical" name="LFERMIGW"> F  </i>
   <i type="logical" name="ODDONLYGW"> F  </i>
   <i type="logical" name="EVENONLYGW"> F  </i>
   <i type="int" name="NKREDLFX">     1</i>
   <i type="int" name="NKREDLFY">     1</i>
   <i type="int" name="NKREDLFZ">     1</i>
   <i type="int" name="MAXMEM">  2800</i>
   <i type="int" name="TELESCOPE">     0</i>
   <i type="int" name="TAUPAR">     1</i>
   <i type="int" name="OMEGAPAR">    -1</i>
   <i name="LAMBDA">      1.00000000</i>
  </separator>
  <separator name="External order field" >
   <i name="OFIELD_KAPPA">      0.00000000</i>
   <v name="OFIELD_K">      0.00000000      0.00000000      0.00000000</v>
   <i name="OFIELD_Q6_NEAR">      0.00000000</i>
   <i name="OFIELD_Q6_FAR">      0.00000000</i>
   <i name="OFIELD_A">      0.00000000</i>
  </separator>
 </parameters>
 <atominfo>
  <atoms>       4 </atoms>
  <types>       2 </types>
  <array name="atoms" >
   <dimension dim="1">ion</dimension>
   <field type="string">element</field>
   <field type="int">atomtype</field>
   <set>
    <rc><c>Sn</c><c>   1</c></rc>
    <rc><c>Sn</c><c>   1</c></rc>
    <rc><c>Se</c><c>   2</c></rc>
    <rc><c>Se</c><c>   2</c></rc>
   </set>
  </array>
  <array name="atomtypes" >
   <dimension dim="1">type</dimension>
   <field type="int">atomspertype</field>
   <field type="string">element</field>
   <field>mass</field>
   <field>valence</field>
   <field type="string">pseudopotential</field>
   <set>
    <rc><c>   2</c><c>Sn</c><c>    118.71000000</c><c>     14.00000000</c><c>  PAW_PBE Sn_d 06Sep2000                </c></rc>
    <rc><c>   2</c><c>Se</c><c>     78.96000000</c><c>      6.00000000</c><c>  PAW_PBE Se 06Sep2000                  </c></rc>
   </set>
  </array>
 </atominfo>
 <structure name="initialpos" >
  <crystal>
   <varray name="basis" >
    <v>       2.13671296      -5.91749822      -0.00000000 </v>
    <v>       2.13671296       5.91749822       0.00000000 </v>
    <v>       0.00000000       0.00000000       4.25106507 </v>
   </varray>
   <i name="volume">    107.50089215 </i>
   <varray name="rec_basis" >
    <v>       0.23400429      -0.08449517       0.00000000 </v>
    <v>       0.23400429       0.08449517      -0.00000000 </v>
    <v>       0.00000000      -0.00000000       0.23523517 </v>
   </varray>
  </crystal>
  <varray name="positions" >
   <v>       0.37491111       0.62508889       0.25000000 </v>
   <v>       0.62508889       0.37491111       0.75000000 </v>
   <v>       0.14355042       0.85644958       0.25000000 </v>
   <v>       0.85644958       0.14355042       0.75000000 </v>
  </varray>
 </structure>
 <calculation>
  <scstep>
   <time name="total">   25.64   25.83</time>
   <energy>
    <i name="alphaZ">    102.77875485 </i>
    <i name="ewald">  -2984.10118111 </i>
    <i name="hartreedc">  -1183.84873226 </i>
    <i name="XCdc">    112.58254866 </i>
    <i name="pawpsdc">   4144.79769344 </i>
    <i name="pawaedc">  -4191.40129632 </i>
    <i name="eentropy">     -0.00009847 </i>
    <i name="bandstr">    148.93928371 </i>
    <i name="atom">   4300.47238994 </i>
    <i name="e_fr_energy">    450.21936242 </i>
    <i name="e_wo_entrp">    450.21946089 </i>
    <i name="e_0_energy">    450.21941166 </i>
   </energy>
  </scstep>
  <scstep>
   <time name="total">   22.81   22.97</time>
   <energy>
    <i name="e_fr_energy">     63.06843201 </i>
    <i name="e_wo_entrp">     63.06855569 </i>
    <i name="e_0_energy">     63.06849385 </i>
   </energy>
  </scstep>
  <scstep>
   <time name="total">   24.41   24.76</time>
   <energy>
    <i name="e_fr_energy">    -11.76966501 </i>
    <i name="e_wo_entrp">    -11.76966501 </i>
    <i name="e_0_energy">    -11.76966501 </i>
   </energy>
  </scstep>
  <scstep>
   <time name="total">   25.37   25.49</time>
   <energy>
    <i name="e_fr_energy">    -15.62588609 </i>
    <i name="e_wo_entrp">    -15.62588609 </i>
    <i name="e_0_energy">    -15.62588609 </i>
   </energy>
  </scstep>
  <scstep>
   <time name="total">   26.08   26.30</time>
   <energy>
    <i name="e_fr_energy">    -15.70435265 </i>
    <i name="e_wo_entrp">    -15.70435265 </i>
    <i name="e_0_energy">    -15.70435265 </i>
   </energy>
  </scstep>
  <scstep>
   <time name="total">   15.75   15.97</time>
   <energy>
    <i name="e_fr_energy">    -15.70435265 </i>
    <i name="e_wo_entrp">    -15.70435265 </i>
    <i name="e_0_energy">    -15.70435265 </i>
   </energy>
  </scstep>
  <scstep>
   <time name="total">   15.70   15.74</time>
   <energy>
    <i name="e_fr_energy">    -15.70653212 </i>
    <i name="e_wo_entrp">    -15.70653212 </i>
    <i name="e_0_energy">    -15.70653212 </i>
   </energy>
  </scstep>
  <scstep>
   <time name="total">   15.93   16.16</time>
   <energy>
    <i name="e_fr_energy">    -15.70709445 </i>
    <i name="e_wo_entrp">    -15.70709445 </i>
    <i name="e_0_energy">    -15.70709445 </i>
   </energy>
  </scstep>
  <scstep>
   <time name="total">   15.68   15.70</time>
   <energy>
    <i name="e_fr_energy">    -15.70729371 </i>
    <i name="e_wo_entrp">    -15.70729371 </i>
    <i name="e_0_energy">    -15.70729371 </i>
   </energy>
  </scstep>
  <scstep>
   <time name="total">   15.88   16.01</time>
   <energy>
    <i name="e_fr_energy">    -15.70732395 </i>
    <i name="e_wo_entrp">    -15.70732395 </i>
    <i name="e_0_energy">    -15.70732395 </i>
   </energy>
  </scstep>
  <scstep>
   <time name="total">   15.67   15.92</time>
   <energy>
    <i name="e_fr_energy">    -15.70733207 </i>
    <i name="e_wo_entrp">    -15.70733207 </i>
    <i name="e_0_energy">    -15.70733207 </i>
   </energy>
  </scstep>
  <scstep>
   <time name="total">   16.10   16.28</time>
   <energy>
    <i name="e_fr_energy">    -15.70733407 </i>
    <i name="e_wo_entrp">    -15.70733407 </i>
    <i name="e_0_energy">    -15.70733407 </i>
   </energy>
  </scstep>
  <scstep>
   <time name="total">   15.85   15.91</time>
   <energy>
    <i name="e_fr_energy">    -15.70733443 </i>
    <i name="e_wo_entrp">    -15.70733443 </i>
    <i name="e_0_energy">    -15.70733443 </i>
   </energy>
  </scstep>
  <scstep>
   <time name="total">   20.05   20.12</time>
   <energy>
    <i name="alphaZ">    102.77875485 </i>
    <i name="ewald">  -2984.10118111 </i>
    <i name="hartreedc">  -1183.84873226 </i>
    <i name="XCdc">    112.58254866 </i>
    <i name="pawpsdc">   4144.79769344 </i>
    <i name="pawaedc">  -4191.40129632 </i>
    <i name="eentropy">     -0.00000000 </i>
    <i name="bandstr">   -316.98751169 </i>
    <i name="atom">   4300.47238994 </i>
    <i name="e_fr_energy">    -15.70733451 </i>
    <i name="e_wo_entrp">    -15.70733451 </i>
    <i name="e_0_energy">    -15.70733451 </i>
   </energy>
  </scstep>
  <structure>
   <crystal>
    <varray name="basis" >
     <v>       2.13671296      -5.91749822      -0.00000000 </v>
     <v>       2.13671296       5.91749822       0.00000000 </v>
     <v>       0.00000000       0.00000000       4.25106507 </v>
    </varray>
    <i name="volume">    107.50089215 </i>
    <varray name="rec_basis" >
     <v>       0.23400429      -0.08449517       0.00000000 </v>
     <v>       0.23400429       0.08449517      -0.00000000 </v>
     <v>       0.00000000      -0.00000000       0.23523517 </v>
    </varray>
   </crystal>
   <varray name="positions" >
    <v>       0.37491111       0.62508889       0.25000000 </v>
    <v>       0.62508889       0.37491111       0.75000000 </v>
    <v>       0.14355042       0.85644958       0.25000000 </v>
    <v>       0.85644958       0.14355042       0.75000000 </v>
   </varray>
  </structure>
  <varray name="forces" >
   <v>       0.00000000       0.17766034      -0.00000000 </v>
   <v>       0.00000000      -0.17766034       0.00000000 </v>
   <v>       0.00000000      -0.22293430      -0.00000000 </v>
   <v>       0.00000000       0.22293430      -0.00000000 </v>
  </varray>
  <varray name="stress" >
   <v>      19.54349682       0.00000000       0.00000000 </v>
   <v>       0.00000000     -17.40196290       0.00000000 </v>
   <v>       0.00000000      -0.00000000       5.75299816 </v>
  </varray>
  <energy>
   <i name="e_fr_energy">    -16.58716805 </i>
   <i name="e_wo_entrp">    -16.58716805 </i>
   <i name="e_0_energy">     -0.00000000 </i>
  </energy>
  <time name="totalsc">  290.27  292.80</time>
  <eigenvalues>
   <array>
    <dimension dim="1">band</dimension>
    <dimension dim="2">kpoint</dimension>
    <dimension dim="3">spin</dimension>
    <field>eigene</field>
    <field>occ</field>
    <set>
     <set comment="spin 1">
      <set comment="kpoint 1">
       <r>  -16.0095    1.0000 </r>
       <r>  -16.0079    1.0000 </r>
       <r>  -15.9991    1.0000 </r>
       <r>  -15.9984    1.0000 </r>
       <r>  -15.9812    1.0000 </r>
       <r>  -15.9801    1.0000 </r>
       <r>  -15.9596    1.0000 </r>
       <r>  -15.9533    1.0000 </r>
       <r>  -15.9525    1.0000 </r>
       <r>  -15.9274    1.0000 </r>
       <r>   -8.2819    1.0000 </r>
       <r>   -6.8284    1.0000 </r>
       <r>   -0.5474    1.0000 </r>
       <r>    0.0052    1.0000 </r>
       <r>    0.5155    1.0000 </r>
       <r>    1.9823    1.0000 </r>
       <r>    2.3325    1.0000 </r>
       <r>    3.0718    1.0000 </r>
       <r>    3.7239    1.0000 </r>
       <r>    4.8355    1.0000 </r>
       <r>    8.9521    0.0000 </r>
       <r>    9.2960    0.0000 </r>
       <r>    9.4531    0.0000 </r>
       <r>   10.0514    0.0000 </r>
       <r>   10.1912    0.0000 </r>
       <r>   10.4770    0.0000 </r>
       <r>   10.7335    0.0000 </r>
       <r>   11.6936    0.0000 </r>
       <r>   11.9392    0.0000 </r>
       <r>   14.1570    0.0000 </r>
       <r>   14.3258    0.0000 </r>
       <r>   14.5182    0.0000 </r>
       <r>   14.8499    0.0000 </r>
       <r>   15.0620    0.0000 </r>
       <r>   15.1852    0.0000 </r>
       <r>   15.4531    0.0000 </r>
       <r>   16.6396    0.0000 </r>
       <r>   19.4779    0.0000 </r>
       <r>   20.5779    0.0000 </r>
       <r>   21.2702    0.0000 </r>
       <r>   21.4005    0.0000 </r>
       <r>   21.9675    0.0000 </r>
       <r>   22.0591    0.0000 </r>
       <r>   22.6214    0.0000 </r>
       <r>   22.6487    0.0000 </r>
       <r>   22.8949    0.0000 </r>
       <r>   22.9904    0.0000 </r>
       <r>   23.0870    0.0000 </r>
      </set>
      <set comment="kpoint 2">
       <r>  -16.0095    1.0000 </r>
       <r>  -16.0079    1.0000 </r>
       <r>  -15.9992    1.0000 </r>
       <r>  -15.9984    1.0000 </r>
       <r>  -15.9811    1.0000 </r>
       <r>  -15.9801    1.0000 </r>
       <r>  -15.9596    1.0000 </r>
       <r>  -15.9533    1.0000 </r>
       <r>  -15.9525    1.0000 </r>
       <r>  -15.9274    1.0000 </r>
       <r>   -8.2811    1.0000 </r>
       <r>   -6.8283    1.0000 </r>
       <r>   -0.5507    1.0000 </r>
       <r>    0.0009    1.0000 </r>
       <r>    0.5144    1.0000 </r>
       <r>    1.9837    1.0000 </r>
       <r>    2.3357    1.0000 </r>
       <r>    3.0787    1.0000 </r>
       <r>    3.7249    1.0000 </r>
       <r>    4.8352    1.0000 </r>
       <r>    8.9567    0.0000 </r>
       <r>    9.2414    0.0000 </r>
       <r>    9.5023    0.0000 </r>
       <r>   10.0453    0.0000 </r>
       <r>   10.1819    0.0000 </r>
       <r>   10.4710    0.0000 </r>
       <r>   10.7337    0.0000 </r>
       <r>   11.6950    0.0000 </r>
       <r>   11.9375    0.0000 </r>
       <r>   14.1693    0.0000 </r>
       <r>   14.3142    0.0000 </r>
       <r>   14.4806    0.0000 </r>
       <r>   14.8881    0.0000 </r>
       <r>   15.0731    0.0000 </r>
       <r>   15.1753    0.0000 </r>
       <r>   15.4863    0.0000 </r>
       <r>   16.6523    0.0000 </r>
       <r>   19.4729    0.0000 </r>
       <r>   20.5678    0.0000 </r>
       <r>   21.2669    0.0000 </r>
       <r>   21.3949    0.0000 </r>
       <r>   21.9493    0.0000 </r>
       <r>   22.0092    0.0000 </r>
       <r>   22.6498    0.0000 </r>
       <r>   22.6734    0.0000 </r>
       <r>   22.8276    0.0000 </r>
       <r>   23.0674    0.0000 </r>
       <r>   23.0994    0.0000 </r>
      </set>
      <set comment="kpoint 3">
       <r>  -16.0094    1.0000 </r>
       <r>  -16.0078    1.0000 </r>
       <r>  -15.9992    1.0000 </r>
       <r>  -15.9985    1.0000 </r>
       <r>  -15.9810    1.0000 </r>
       <r>  -15.9801    1.0000 </r>
       <r>  -15.9596    1.0000 </r>
       <r>  -15.9533    1.0000 </r>
       <r>  -15.9525    1.0000 </r>
       <r>  -15.9274    1.0000 </r>
       <r>   -8.2784    1.0000 </r>
       <r>   -6.8282    1.0000 </r>
       <r>   -0.5606    1.0000 </r>
       <r>   -0.0121    1.0000 </r>
       <r>    0.5112    1.0000 </r>
       <r>    1.9880    1.0000 </r>
       <r>    2.3453    1.0000 </r>
       <r>    3.0992    1.0000 </r>
       <r>    3.7278    1.0000 </r>
       <r>    4.8340    1.0000 </r>
       <r>    8.9702    0.0000 </r>
       <r>    9.1417    0.0000 </r>
       <r>    9.5861    0.0000 </r>
       <r>   10.0271    0.0000 </r>
       <r>   10.1543    0.0000 </r>
       <r>   10.4527    0.0000 </r>
       <r>   10.7345    0.0000 </r>
       <r>   11.6992    0.0000 </r>
       <r>   11.9329    0.0000 </r>
       <r>   14.2059    0.0000 </r>
       <r>   14.2813    0.0000 </r>
       <r>   14.3959    0.0000 </r>
       <r>   14.9748    0.0000 </r>
       <r>   15.1062    0.0000 </r>
       <r>   15.1591    0.0000 </r>
       <r>   15.5706    0.0000 </r>
       <r>   16.6901    0.0000 </r>
       <r>   19.4578    0.0000 </r>
       <r>   20.5381    0.0000 </r>
       <r>   21.2556    0.0000 </r>
       <r>   21.3800    0.0000 </r>
       <r>   21.8977    0.0000 </r>
       <r>   21.8993    0.0000 </r>
       <r>   22.6534    0.0000 </r>
       <r>   22.7429    0.0000 </r>
       <r>   22.8087    0.0000 </r>
       <r>   23.1473    0.0000 </r>
       <r>   23.1950    0.0000 </r>
      </set>
      <set comment="kpoint 4">
       <r>  -16.0094    1.0000 </r>
       <r>  -16.0077    1.0000 </r>
       <r>  -15.9993    1.0000 </r>
       <r>  -15.9985    1.0000 </r>
       <r>  -15.9809    1.0000 </r>
       <r>  -15.9801    1.0000 </r>
       <r>  -15.9596    1.0000 </r>
       <r>  -15.9534    1.0000 </r>
       <r>  -15.9525    1.0000 </r>
       <r>  -15.9274    1.0000 </r>
       <r>   -8.2740    1.0000 </r>
       <r>   -6.8280    1.0000 </r>
       <r>   -0.5769    1.0000 </r>
       <r>   -0.0342    1.0000 </r>
       <r>    0.5070    1.0000 </r>
       <r>    1.9951    1.0000 </r>
       <r>    2.3610    1.0000 </r>
       <r>    3.1327    1.0000 </r>
       <r>    3.7326    1.0000 </r>
       <r>    4.8320    1.0000 </r>
       <r>    8.9927    0.0000 </r>
       <r>    9.0303    0.0000 </r>
       <r>    9.6708    0.0000 </r>
       <r>    9.9968    0.0000 </r>
       <r>   10.1095    0.0000 </r>
       <r>   10.4221    0.0000 </r>
       <r>   10.7368    0.0000 </r>
       <r>   11.7061    0.0000 </r>
       <r>   11.9259    0.0000 </r>
       <r>   14.2319    0.0000 </r>
       <r>   14.2657    0.0000 </r>
       <r>   14.2939    0.0000 </r>
       <r>   15.0813    0.0000 </r>
       <r>   15.1526    0.0000 </r>
       <r>   15.1604    0.0000 </r>
       <r>   15.6853    0.0000 </r>
       <r>   16.7515    0.0000 </r>
       <r>   19.4326    0.0000 </r>
       <r>   20.4897    0.0000 </r>
       <r>   21.2303    0.0000 </r>
       <r>   21.3586    0.0000 </r>
       <r>   21.7785    0.0000 </r>
       <r>   21.8193    0.0000 </r>
       <r>   22.6585    0.0000 </r>
       <r>   22.6692    0.0000 </r>
       <r>   22.9747    0.0000 </r>
       <r>   23.2214    0.0000 </r>
       <r>   23.3319    0.0000 </r>
      </set>
      <set comment="kpoint 5">
       <r>  -16.0093    1.0000 </r>
       <r>  -16.0076    1.0000 </r>
       <r>  -15.9994    1.0000 </r>
       <r>  -15.9986    1.0000 </r>
       <r>  -15.9807    1.0000 </r>
       <r>  -15.9800    1.0000 </r>
       <r>  -15.9596    1.0000 </r>
       <r>  -15.9535    1.0000 </r>
       <r>  -15.9525    1.0000 </r>
       <r>  -15.9274    1.0000 </r>
       <r>   -8.2677    1.0000 </r>
       <r>   -6.8278    1.0000 </r>
       <r>   -0.5993    1.0000 </r>
       <r>   -0.0659    1.0000 </r>
       <r>    0.5033    1.0000 </r>
       <r>    2.0050    1.0000 </r>
       <r>    2.3826    1.0000 </r>
       <r>    3.1783    1.0000 </r>
       <r>    3.7392    1.0000 </r>
       <r>    4.8292    1.0000 </r>
       <r>    8.9127    0.0000 </r>
       <r>    9.0237    0.0000 </r>
       <r>    9.7507    0.0000 </r>
       <r>    9.9548    0.0000 </r>
       <r>   10.0490    0.0000 </r>
       <r>   10.3793    0.0000 </r>
       <r>   10.7412    0.0000 </r>
       <r>   11.7157    0.0000 </r>
       <r>   11.9175    0.0000 </r>
       <r>   14.1722    0.0000 </r>
       <r>   14.1854    0.0000 </r>
       <r>   14.3471    0.0000 </r>
       <r>   15.1605    0.0000 </r>
       <r>   15.1977    0.0000 </r>
       <r>   15.2344    0.0000 </r>
       <r>   15.8194    0.0000 </r>
       <r>   16.8344    0.0000 </r>
       <r>   19.3974    0.0000 </r>
       <r>   20.4241    0.0000 </r>
       <r>   21.1803    0.0000 </r>
       <r>   21.3347    0.0000 </r>
       <r>   21.6754    0.0000 </r>
       <r>   21.7217    0.0000 </r>
       <r>   22.6090    0.0000 </r>
       <r>   22.6647    0.0000 </r>
       <r>   23.1587    0.0000 </r>
       <r>   23.3197    0.0000 </r>
       <r>   23.4901    0.0000 </r>
      </set>
      <set comment="kpoint 6">
       <r>  -16.0092    1.0000 </r>
       <r>  -16.0074    1.0000 </r>
       <r>  -15.9996    1.0000 </r>
       <r>  -15.9987    1.0000 </r>
       <r>  -15.9805    1.0000 </r>
       <r>  -15.9799    1.0000 </r>
       <r>  -15.9597    1.0000 </r>
       <r>  -15.9535    1.0000 </r>
       <r>  -15.9525    1.0000 </r>
       <r>  -15.9275    1.0000 </r>
       <r>   -8.2598    1.0000 </r>
       <r>   -6.8275    1.0000 </r>
       <r>   -0.6273    1.0000 </r>
       <r>   -0.1074    1.0000 </r>
       <r>    0.5015    1.0000 </r>
       <r>    2.0178    1.0000 </r>
       <r>    2.4098    1.0000 </r>
       <r>    3.2348    1.0000 </r>
       <r>    3.7478    1.0000 </r>
       <r>    4.8256    1.0000 </r>
       <r>    8.7908    0.0000 </r>
       <r>    9.0629    0.0000 </r>
       <r>    9.8237    0.0000 </r>
       <r>    9.9015    0.0000 </r>
       <r>    9.9749    0.0000 </r>
       <r>   10.3252    0.0000 </r>
       <r>   10.7482    0.0000 </r>
       <r>   11.7281    0.0000 </r>
       <r>   11.9091    0.0000 </r>
       <r>   14.0746    0.0000 </r>
       <r>   14.1080    0.0000 </r>
       <r>   14.4484    0.0000 </r>
       <r>   15.1828    0.0000 </r>
       <r>   15.3211    0.0000 </r>
       <r>   15.3266    0.0000 </r>
       <r>   15.9672    0.0000 </r>
       <r>   16.9362    0.0000 </r>
       <r>   19.3524    0.0000 </r>
       <r>   20.3433    0.0000 </r>
       <r>   21.0957    0.0000 </r>
       <r>   21.3130    0.0000 </r>
       <r>   21.6067    0.0000 </r>
       <r>   21.6120    0.0000 </r>
       <r>   22.5655    0.0000 </r>
       <r>   22.6755    0.0000 </r>
       <r>   23.3518    0.0000 </r>
       <r>   23.4348    0.0000 </r>
       <r>   23.6533    0.0000 </r>
      </set>
      <set comment="kpoint 7">
       <r>  -16.0090    1.0000 </r>
       <r>  -16.0072    1.0000 </r>
       <r>  -15.9998    1.0000 </r>
       <r>  -15.9988    1.0000 </r>
       <r>  -15.9802    1.0000 </r>
       <r>  -15.9799    1.0000 </r>
       <r>  -15.9597    1.0000 </r>
       <r>  -15.9536    1.0000 </r>
       <r>  -15.9525    1.0000 </r>
       <r>  -15.9275    1.0000 </r>
       <r>   -8.2501    1.0000 </r>
       <r>   -6.8273    1.0000 </r>
       <r>   -0.6604    1.0000 </r>
       <r>   -0.1587    1.0000 </r>
       <r>    0.5027    1.0000 </r>
       <r>    2.0334    1.0000 </r>
       <r>    2.4422    1.0000 </r>
       <r>    3.3009    1.0000 </r>
       <r>    3.7581    1.0000 </r>
       <r>    4.8212    1.0000 </r>
       <r>    8.6653    0.0000 </r>
       <r>    9.1095    0.0000 </r>
       <r>    9.8373    0.0000 </r>
       <r>    9.8884    0.0000 </r>
       <r>    9.8889    0.0000 </r>
       <r>   10.2612    0.0000 </r>
       <r>   10.7582    0.0000 </r>
       <r>   11.7435    0.0000 </r>
       <r>   11.9016    0.0000 </r>
       <r>   13.9635    0.0000 </r>
       <r>   14.0439    0.0000 </r>
       <r>   14.5675    0.0000 </r>
       <r>   15.2181    0.0000 </r>
       <r>   15.4353    0.0000 </r>
       <r>   15.4508    0.0000 </r>
       <r>   16.1251    0.0000 </r>
       <r>   17.0541    0.0000 </r>
       <r>   19.2981    0.0000 </r>
       <r>   20.2495    0.0000 </r>
       <r>   20.9781    0.0000 </r>
       <r>   21.2955    0.0000 </r>
       <r>   21.4941    0.0000 </r>
       <r>   21.5735    0.0000 </r>
       <r>   22.5242    0.0000 </r>
       <r>   22.6780    0.0000 </r>
       <r>   23.5480    0.0000 </r>
       <r>   23.5733    0.0000 </r>
       <r>   23.8145    0.0000 </r>
      </set>
      <set comment="kpoint 8">
       <r>  -16.0089    1.0000 </r>
       <r>  -16.0070    1.0000 </r>
       <r>  -16.0000    1.0000 </r>
       <r>  -15.9989    1.0000 </r>
       <r>  -15.9798    1.0000 </r>
       <r>  -15.9797    1.0000 </r>
       <r>  -15.9598    1.0000 </r>
       <r>  -15.9538    1.0000 </r>
       <r>  -15.9525    1.0000 </r>
       <r>  -15.9276    1.0000 </r>
       <r>   -8.2386    1.0000 </r>
       <r>   -6.8270    1.0000 </r>
       <r>   -0.6981    1.0000 </r>
       <r>   -0.2191    1.0000 </r>
       <r>    0.5075    1.0000 </r>
       <r>    2.0518    1.0000 </r>
       <r>    2.4795    1.0000 </r>
       <r>    3.3754    1.0000 </r>
       <r>    3.7701    1.0000 </r>
       <r>    4.8159    1.0000 </r>
       <r>    8.5371    0.0000 </r>
       <r>    9.1624    0.0000 </r>
       <r>    9.7631    0.0000 </r>
       <r>    9.7934    0.0000 </r>
       <r>    9.9435    0.0000 </r>
       <r>   10.1893    0.0000 </r>
       <r>   10.7711    0.0000 </r>
       <r>   11.7628    0.0000 </r>
       <r>   11.8962    0.0000 </r>
       <r>   13.8535    0.0000 </r>
       <r>   13.9835    0.0000 </r>
       <r>   14.7023    0.0000 </r>
       <r>   15.2649    0.0000 </r>
       <r>   15.5587    0.0000 </r>
       <r>   15.5864    0.0000 </r>
       <r>   16.2909    0.0000 </r>
       <r>   17.1856    0.0000 </r>
       <r>   19.2353    0.0000 </r>
       <r>   20.1448    0.0000 </r>
       <r>   20.8390    0.0000 </r>
       <r>   21.2859    0.0000 </r>
       <r>   21.3734    0.0000 </r>
       <r>   21.5659    0.0000 </r>
       <r>   22.4981    0.0000 </r>
       <r>   22.6851    0.0000 </r>
       <r>   23.6853    0.0000 </r>
       <r>   23.7614    0.0000 </r>
       <r>   23.9886    0.0000 </r>
      </set>
      <set comment="kpoint 9">
       <r>  -16.0087    1.0000 </r>
       <r>  -16.0068    1.0000 </r>
       <r>  -16.0002    1.0000 </r>
       <r>  -15.9991    1.0000 </r>
       <r>  -15.9796    1.0000 </r>
       <r>  -15.9795    1.0000 </r>
       <r>  -15.9599    1.0000 </r>
       <r>  -15.9539    1.0000 </r>
       <r>  -15.9525    1.0000 </r>
       <r>  -15.9276    1.0000 </r>
       <r>   -8.2255    1.0000 </r>
       <r>   -6.8269    1.0000 </r>
       <r>   -0.7396    1.0000 </r>
       <r>   -0.2877    1.0000 </r>
       <r>    0.5164    1.0000 </r>
       <r>    2.0730    1.0000 </r>
       <r>    2.5211    1.0000 </r>
       <r>    3.4571    1.0000 </r>
       <r>    3.7837    1.0000 </r>
       <r>    4.8098    1.0000 </r>
       <r>    8.4066    0.0000 </r>
       <r>    9.2199    0.0000 </r>
       <r>    9.6795    0.0000 </r>
       <r>    9.6900    0.0000 </r>
       <r>    9.9877    0.0000 </r>
       <r>   10.1121    0.0000 </r>
       <r>   10.7871    0.0000 </r>
       <r>   11.7867    0.0000 </r>
       <r>   11.8937    0.0000 </r>
       <r>   13.7455    0.0000 </r>
       <r>   13.9289    0.0000 </r>
       <r>   14.8511    0.0000 </r>
       <r>   15.3218    0.0000 </r>
       <r>   15.6951    0.0000 </r>
       <r>   15.7276    0.0000 </r>
       <r>   16.4628    0.0000 </r>
       <r>   17.3280    0.0000 </r>
       <r>   19.1651    0.0000 </r>
       <r>   20.0314    0.0000 </r>
       <r>   20.6886    0.0000 </r>
       <r>   21.2525    0.0000 </r>
       <r>   21.2856    0.0000 </r>
       <r>   21.5747    0.0000 </r>
       <r>   22.4815    0.0000 </r>
       <r>   22.6921    0.0000 </r>
       <r>   23.7898    0.0000 </r>
       <r>   23.9577    0.0000 </r>
       <r>   24.1818    0.0000 </r>
      </set>
      <set comment="kpoint 10">
       <r>  -16.0085    1.0000 </r>
       <r>  -16.0065    1.0000 </r>
       <r>  -16.0005    1.0000 </r>
       <r>  -15.9993    1.0000 </r>
       <r>  -15.9795    1.0000 </r>
       <r>  -15.9790    1.0000 </r>
       <r>  -15.9600    1.0000 </r>
       <r>  -15.9541    1.0000 </r>
       <r>  -15.9524    1.0000 </r>
       <r>  -15.9277    1.0000 </r>
       <r>   -8.2107    1.0000 </r>
       <r>   -6.8269    1.0000 </r>
       <r>   -0.7845    1.0000 </r>
       <r>   -0.3633    1.0000 </r>
       <r>    0.5293    1.0000 </r>
       <r>    2.0969    1.0000 </r>
       <r>    2.5667    1.0000 </r>
       <r>    3.5449    1.0000 </r>
       <r>    3.7989    1.0000 </r>
       <r>    4.8028    1.0000 </r>
       <r>    8.2742    0.0000 </r>
       <r>    9.2788    0.0000 </r>
       <r>    9.5807    0.0000 </r>
       <r>    9.5876    0.0000 </r>
       <r>   10.0197    0.0000 </r>
       <r>   10.0337    0.0000 </r>
       <r>   10.8062    0.0000 </r>
       <r>   11.8165    0.0000 </r>
       <r>   11.8946    0.0000 </r>
       <r>   13.6403    0.0000 </r>
       <r>   13.8815    0.0000 </r>
       <r>   15.0122    0.0000 </r>
       <r>   15.3877    0.0000 </r>
       <r>   15.8428    0.0000 </r>
       <r>   15.8739    0.0000 </r>
       <r>   16.6396    0.0000 </r>
       <r>   17.4789    0.0000 </r>
       <r>   19.0889    0.0000 </r>
       <r>   19.9110    0.0000 </r>
       <r>   20.5329    0.0000 </r>
       <r>   21.1341    0.0000 </r>
       <r>   21.2953    0.0000 </r>
       <r>   21.5943    0.0000 </r>
       <r>   22.4736    0.0000 </r>
       <r>   22.6996    0.0000 </r>
       <r>   23.8433    0.0000 </r>
       <r>   24.1973    0.0000 </r>
       <r>   24.4749    0.0000 </r>
      </set>
      <set comment="kpoint 11">
       <r>  -16.0083    1.0000 </r>
       <r>  -16.0061    1.0000 </r>
       <r>  -16.0008    1.0000 </r>
       <r>  -15.9994    1.0000 </r>
       <r>  -15.9794    1.0000 </r>
       <r>  -15.9785    1.0000 </r>
       <r>  -15.9601    1.0000 </r>
       <r>  -15.9542    1.0000 </r>
       <r>  -15.9524    1.0000 </r>
       <r>  -15.9278    1.0000 </r>
       <r>   -8.1943    1.0000 </r>
       <r>   -6.8271    1.0000 </r>
       <r>   -0.8320    1.0000 </r>
       <r>   -0.4448    1.0000 </r>
       <r>    0.5460    1.0000 </r>
       <r>    2.1235    1.0000 </r>
       <r>    2.6158    1.0000 </r>
       <r>    3.6377    1.0000 </r>
       <r>    3.8154    1.0000 </r>
       <r>    4.7949    1.0000 </r>
       <r>    8.1404    0.0000 </r>
       <r>    9.3329    0.0000 </r>
       <r>    9.4670    0.0000 </r>
       <r>    9.4883    0.0000 </r>
       <r>    9.9609    0.0000 </r>
       <r>   10.0382    0.0000 </r>
       <r>   10.8285    0.0000 </r>
       <r>   11.8539    0.0000 </r>
       <r>   11.8994    0.0000 </r>
       <r>   13.5388    0.0000 </r>
       <r>   13.8419    0.0000 </r>
       <r>   15.1839    0.0000 </r>
       <r>   15.4614    0.0000 </r>
       <r>   16.0004    0.0000 </r>
       <r>   16.0247    0.0000 </r>
       <r>   16.8203    0.0000 </r>
       <r>   17.6359    0.0000 </r>
       <r>   19.0083    0.0000 </r>
       <r>   19.7853    0.0000 </r>
       <r>   20.3752    0.0000 </r>
       <r>   21.0205    0.0000 </r>
       <r>   21.3155    0.0000 </r>
       <r>   21.6218    0.0000 </r>
       <r>   22.4718    0.0000 </r>
       <r>   22.7058    0.0000 </r>
       <r>   23.7776    0.0000 </r>
       <r>   24.3926    0.0000 </r>
       <r>   24.5850    0.0000 </r>
      </set>
      <set comment="kpoint 12">
       <r>  -16.0080    1.0000 </r>
       <r>  -16.0058    1.0000 </r>
       <r>  -16.0012    1.0000 </r>
       <r>  -15.9996    1.0000 </r>
       <r>  -15.9792    1.0000 </r>
       <r>  -15.9780    1.0000 </r>
       <r>  -15.9602    1.0000 </r>
       <r>  -15.9544    1.0000 </r>
       <r>  -15.9524    1.0000 </r>
       <r>  -15.9278    1.0000 </r>
       <r>   -8.1762    1.0000 </r>
       <r>   -6.8276    1.0000 </r>
       <r>   -0.8816    1.0000 </r>
       <r>   -0.5311    1.0000 </r>
       <r>    0.5664    1.0000 </r>
       <r>    2.1528    1.0000 </r>
       <r>    2.6682    1.0000 </r>
       <r>    3.7347    1.0000 </r>
       <r>    3.8333    1.0000 </r>
       <r>    4.7861    1.0000 </r>
       <r>    8.0057    0.0000 </r>
       <r>    9.3502    0.0000 </r>
       <r>    9.3708    0.0000 </r>
       <r>    9.3827    0.0000 </r>
       <r>    9.9053    0.0000 </r>
       <r>   10.0423    0.0000 </r>
       <r>   10.8543    0.0000 </r>
       <r>   11.9002    0.0000 </r>
       <r>   11.9083    0.0000 </r>
       <r>   13.4415    0.0000 </r>
       <r>   13.8102    0.0000 </r>
       <r>   15.3651    0.0000 </r>
       <r>   15.5418    0.0000 </r>
       <r>   16.1665    0.0000 </r>
       <r>   16.1793    0.0000 </r>
       <r>   17.0037    0.0000 </r>
       <r>   17.7965    0.0000 </r>
       <r>   18.9252    0.0000 </r>
       <r>   19.6557    0.0000 </r>
       <r>   20.2175    0.0000 </r>
       <r>   20.9143    0.0000 </r>
       <r>   21.3460    0.0000 </r>
       <r>   21.6557    0.0000 </r>
[...]
       <r>   21.9382    0.0000 </r>
       <r>   22.8563    0.0000 </r>
       <r>   22.8568    0.0000 </r>
       <r>   23.8057    0.0000 </r>
       <r>   23.8076    0.0000 </r>
       <r>   23.8089    0.0000 </r>
       <r>   23.8179    0.0000 </r>
      </set>
      <set comment="kpoint 391">
       <r>  -16.0063    1.0000 </r>
       <r>  -16.0063    1.0000 </r>
       <r>  -15.9999    1.0000 </r>
       <r>  -15.9999    1.0000 </r>
       <r>  -15.9770    1.0000 </r>
       <r>  -15.9770    1.0000 </r>
       <r>  -15.9523    1.0000 </r>
       <r>  -15.9523    1.0000 </r>
       <r>  -15.9421    1.0000 </r>
       <r>  -15.9421    1.0000 </r>
       <r>   -7.2563    1.0000 </r>
       <r>   -7.2563    1.0000 </r>
       <r>   -2.2763    1.0000 </r>
       <r>   -2.2763    1.0000 </r>
       <r>    3.5461    1.0000 </r>
       <r>    3.5461    1.0000 </r>
       <r>    3.8021    1.0000 </r>
       <r>    3.8021    1.0000 </r>
       <r>    4.4388    1.0000 </r>
       <r>    4.4388    1.0000 </r>
       <r>    6.8962    0.0000 </r>
       <r>    6.8962    0.0000 </r>
       <r>    7.4835    0.0000 </r>
       <r>    7.4835    0.0000 </r>
       <r>    8.0417    0.0000 </r>
       <r>    8.0417    0.0000 </r>
       <r>   12.8931    0.0000 </r>
       <r>   12.8931    0.0000 </r>
       <r>   13.3598    0.0000 </r>
       <r>   13.3598    0.0000 </r>
       <r>   15.2322    0.0000 </r>
       <r>   15.2322    0.0000 </r>
       <r>   16.4889    0.0000 </r>
       <r>   16.4889    0.0000 </r>
       <r>   19.0815    0.0000 </r>
       <r>   19.0815    0.0000 </r>
       <r>   21.3831    0.0000 </r>
       <r>   21.3831    0.0000 </r>
       <r>   21.7097    0.0000 </r>
       <r>   21.7097    0.0000 </r>
       <r>   21.9758    0.0000 </r>
       <r>   21.9759    0.0000 </r>
       <r>   22.8834    0.0000 </r>
       <r>   22.8903    0.0000 </r>
       <r>   23.7724    0.0000 </r>
       <r>   23.7841    0.0000 </r>
       <r>   23.8402    0.0000 </r>
       <r>   23.8429    0.0000 </r>
      </set>
      <set comment="kpoint 392">
       <r>  -16.0063    1.0000 </r>
       <r>  -16.0063    1.0000 </r>
       <r>  -15.9999    1.0000 </r>
       <r>  -15.9999    1.0000 </r>
       <r>  -15.9770    1.0000 </r>
       <r>  -15.9770    1.0000 </r>
       <r>  -15.9524    1.0000 </r>
       <r>  -15.9524    1.0000 </r>
       <r>  -15.9421    1.0000 </r>
       <r>  -15.9421    1.0000 </r>
       <r>   -7.2561    1.0000 </r>
       <r>   -7.2561    1.0000 </r>
       <r>   -2.2778    1.0000 </r>
       <r>   -2.2778    1.0000 </r>
       <r>    3.5457    1.0000 </r>
       <r>    3.5457    1.0000 </r>
       <r>    3.8140    1.0000 </r>
       <r>    3.8140    1.0000 </r>
       <r>    4.4328    1.0000 </r>
       <r>    4.4328    1.0000 </r>
       <r>    6.8941    0.0000 </r>
       <r>    6.8941    0.0000 </r>
       <r>    7.4855    0.0000 </r>
       <r>    7.4855    0.0000 </r>
       <r>    8.0379    0.0000 </r>
       <r>    8.0379    0.0000 </r>
       <r>   12.8868    0.0000 </r>
       <r>   12.8868    0.0000 </r>
       <r>   13.3545    0.0000 </r>
       <r>   13.3545    0.0000 </r>
       <r>   15.2343    0.0000 </r>
       <r>   15.2343    0.0000 </r>
       <r>   16.4861    0.0000 </r>
       <r>   16.4861    0.0000 </r>
       <r>   19.0999    0.0000 </r>
       <r>   19.0999    0.0000 </r>
       <r>   21.3941    0.0000 </r>
       <r>   21.3941    0.0000 </r>
       <r>   21.6983    0.0000 </r>
       <r>   21.6983    0.0000 </r>
       <r>   21.9901    0.0000 </r>
       <r>   21.9901    0.0000 </r>
       <r>   22.8919    0.0000 </r>
       <r>   22.8937    0.0000 </r>
       <r>   23.7578    0.0000 </r>
       <r>   23.7617    0.0000 </r>
       <r>   23.8538    0.0000 </r>
       <r>   23.8573    0.0000 </r>
      </set>
     </set>
    </set>
   </array>
  </eigenvalues>
  <separator name="orbital magnetization" >
   <v name="MAGDIPOLOUT">      0.00000000      0.00000000      0.00000000</v>
  </separator>
  <dos>
   <i name="efermi">      5.61152917 </i>
   <total>
    <array>
     <dimension dim="1">gridpoints</dimension>
     <dimension dim="2">spin</dimension>
     <field>energy</field>
     <field>total</field>
     <field>integrated</field>
     <set>
      <set comment="spin 1">
       <r>   -18.1759     0.0000     0.0000 </r>
       <r>   -18.0181     0.0000     0.0000 </r>
       <r>   -17.8602     0.0000     0.0000 </r>
       <r>   -17.7024     0.0000     0.0000 </r>
       <r>   -17.5445     0.0000     0.0000 </r>
       <r>   -17.3866     0.0000     0.0000 </r>
       <r>   -17.2288     0.0000     0.0000 </r>
       <r>   -17.0709     0.0000     0.0000 </r>
       <r>   -16.9131     0.0000     0.0000 </r>
       <r>   -16.7552     0.0000     0.0000 </r>
       <r>   -16.5973     0.0000     0.0000 </r>
       <r>   -16.4395     0.0000     0.0000 </r>
       <r>   -16.2816     0.0000     0.0000 </r>
       <r>   -16.1238     0.0000     0.0000 </r>
       <r>   -15.9659    75.0119    11.8413 </r>
       <r>   -15.8080     0.0000    20.0000 </r>
       <r>   -15.6502     0.0000    20.0000 </r>
       <r>   -15.4923     0.0000    20.0000 </r>
       <r>   -15.3345     0.0000    20.0000 </r>
       <r>   -15.1766     0.0000    20.0000 </r>
       <r>   -15.0187     0.0000    20.0000 </r>
       <r>   -14.8609     0.0000    20.0000 </r>
       <r>   -14.7030     0.0000    20.0000 </r>
       <r>   -14.5452     0.0000    20.0000 </r>
       <r>   -14.3873     0.0000    20.0000 </r>
       <r>   -14.2294     0.0000    20.0000 </r>
       <r>   -14.0716     0.0000    20.0000 </r>
       <r>   -13.9137     0.0000    20.0000 </r>
       <r>   -13.7559     0.0000    20.0000 </r>
       <r>   -13.5980     0.0000    20.0000 </r>
       <r>   -13.4401     0.0000    20.0000 </r>
       <r>   -13.2823     0.0000    20.0000 </r>
       <r>   -13.1244     0.0000    20.0000 </r>
       <r>   -12.9666     0.0000    20.0000 </r>
       <r>   -12.8087     0.0000    20.0000 </r>
       <r>   -12.6508     0.0000    20.0000 </r>
       <r>   -12.4930     0.0000    20.0000 </r>
       <r>   -12.3351     0.0000    20.0000 </r>
       <r>   -12.1773     0.0000    20.0000 </r>
       <r>   -12.0194     0.0000    20.0000 </r>
       <r>   -11.8616     0.0000    20.0000 </r>
       <r>   -11.7037     0.0000    20.0000 </r>
       <r>   -11.5458     0.0000    20.0000 </r>
       <r>   -11.3880     0.0000    20.0000 </r>
       <r>   -11.2301     0.0000    20.0000 </r>
       <r>   -11.0723     0.0000    20.0000 </r>
       <r>   -10.9144     0.0000    20.0000 </r>
       <r>   -10.7565     0.0000    20.0000 </r>
       <r>   -10.5987     0.0000    20.0000 </r>
       <r>   -10.4408     0.0000    20.0000 </r>
       <r>   -10.2830     0.0000    20.0000 </r>
       <r>   -10.1251     0.0000    20.0000 </r>
       <r>    -9.9672     0.0000    20.0000 </r>
       <r>    -9.8094     0.0000    20.0000 </r>
       <r>    -9.6515     0.0000    20.0000 </r>
       <r>    -9.4937     0.0000    20.0000 </r>
       <r>    -9.3358     0.0000    20.0000 </r>
       <r>    -9.1779     0.0000    20.0000 </r>
       <r>    -9.0201     0.0000    20.0000 </r>
       <r>    -8.8622     0.0000    20.0000 </r>
       <r>    -8.7044     0.0000    20.0000 </r>
       <r>    -8.5465     0.0000    20.0000 </r>
       <r>    -8.3886     0.0000    20.0000 </r>
       <r>    -8.2308     0.8215    20.1297 </r>
       <r>    -8.0729     0.3992    20.2671 </r>
       <r>    -7.9151     0.5834    20.4798 </r>
       <r>    -7.7572     0.3739    20.5998 </r>
       <r>    -7.5993     0.3152    20.7028 </r>
       <r>    -7.4415     0.3479    20.7998 </r>
       <r>    -7.2836     2.5486    21.3105 </r>
       <r>    -7.1258     3.8759    22.5761 </r>
       <r>    -6.9679     3.8279    23.5277 </r>
       <r>    -6.8100     1.6764    23.9993 </r>
       <r>    -6.6522     0.0000    24.0000 </r>
       <r>    -6.4943     0.0000    24.0000 </r>
       <r>    -6.3365     0.0000    24.0000 </r>
       <r>    -6.1786     0.0000    24.0000 </r>
       <r>    -6.0207     0.0000    24.0000 </r>
       <r>    -5.8629     0.0000    24.0000 </r>
       <r>    -5.7050     0.0000    24.0000 </r>
       <r>    -5.5472     0.0000    24.0000 </r>
       <r>    -5.3893     0.0000    24.0000 </r>
       <r>    -5.2314     0.0000    24.0000 </r>
       <r>    -5.0736     0.0000    24.0000 </r>
       <r>    -4.9157     0.0000    24.0000 </r>
       <r>    -4.7579     0.0000    24.0000 </r>
       <r>    -4.6000     0.0000    24.0000 </r>
       <r>    -4.4422     0.0000    24.0000 </r>
       <r>    -4.2843     0.0000    24.0000 </r>
       <r>    -4.1264     0.0000    24.0000 </r>
       <r>    -3.9686     0.0000    24.0000 </r>
       <r>    -3.8107     0.0000    24.0000 </r>
       <r>    -3.6529     0.0000    24.0000 </r>
       <r>    -3.4950     0.0000    24.0000 </r>
       <r>    -3.3371     0.0000    24.0000 </r>
       <r>    -3.1793     0.0000    24.0000 </r>
       <r>    -3.0214     0.0000    24.0000 </r>
       <r>    -2.8636     0.0000    24.0000 </r>
       <r>    -2.7057     0.0063    24.0010 </r>
       <r>    -2.5478     0.4512    24.1988 </r>
       <r>    -2.3900     0.3878    24.3469 </r>
       <r>    -2.2321     1.2286    24.6225 </r>
       <r>    -2.0743     0.6847    24.8581 </r>
       <r>    -1.9164     0.5791    25.0404 </r>
       <r>    -1.7585     0.9876    25.2784 </r>
       <r>    -1.6007     1.3480    25.7128 </r>
       <r>    -1.4428     0.9334    26.0708 </r>
       <r>    -1.2850     1.0343    26.3776 </r>
       <r>    -1.1271     0.8434    26.6229 </r>
       <r>    -0.9692     1.3977    27.0319 </r>
       <r>    -0.8114     0.4431    27.3353 </r>
       <r>    -0.6535     0.2989    27.4349 </r>
       <r>    -0.4957     0.3971    27.5525 </r>
       <r>    -0.3378     0.1529    27.6007 </r>
       <r>    -0.1799     0.1658    27.6435 </r>
       <r>    -0.0221     0.2589    27.7143 </r>
       <r>     0.1358     0.1503    27.7992 </r>
       <r>     0.2936     0.2574    27.8672 </r>
       <r>     0.4515     0.9197    28.3186 </r>
       <r>     0.6094     0.7677    28.6467 </r>
       <r>     0.7672     0.4591    28.8021 </r>
       <r>     0.9251     0.3650    28.9148 </r>
       <r>     1.0829     0.3350    29.0325 </r>
       <r>     1.2408     0.3547    29.1478 </r>
       <r>     1.3987     0.3603    29.2456 </r>
       <r>     1.5565     0.3462    29.3455 </r>
       <r>     1.7144     0.5782    29.5607 </r>
       <r>     1.8722     1.0050    29.8015 </r>
       <r>     2.0301     2.5264    30.4651 </r>
       <r>     2.1879     1.3349    30.8995 </r>
       <r>     2.3458     1.5338    31.3544 </r>
       <r>     2.5037     1.2651    31.8068 </r>
       <r>     2.6615     1.2006    32.1844 </r>
       <r>     2.8194     1.1893    32.5500 </r>
       <r>     2.9772     1.2190    32.8659 </r>
       <r>     3.1351     2.0331    33.3465 </r>
       <r>     3.2930     1.7731    33.8666 </r>
       <r>     3.4508     1.8968    34.4219 </r>
       <r>     3.6087     4.0347    35.3461 </r>
       <r>     3.7665     3.4266    36.5307 </r>
       <r>     3.9244     1.7528    37.1849 </r>
       <r>     4.0823     0.8033    37.4584 </r>
       <r>     4.2401     0.4766    37.6416 </r>
       <r>     4.3980     0.7618    37.8294 </r>
       <r>     4.5558     1.0149    38.1806 </r>
       <r>     4.7137     1.4194    38.6016 </r>
       <r>     4.8716     2.3063    39.2875 </r>
       <r>     5.0294     0.5399    39.5342 </r>
       <r>     5.1873     1.1824    39.8040 </r>
       <r>     5.3451     0.4869    39.9340 </r>
       <r>     5.5030     0.0645    39.9949 </r>
       <r>     5.6609     0.0000    40.0000 </r>
       <r>     5.8187     0.2380    40.1294 </r>
       <r>     5.9766     0.1798    40.2019 </r>
       <r>     6.1344     0.2667    40.2819 </r>
       <r>     6.2923     1.0497    40.5382 </r>
       <r>     6.4502     1.1679    40.8527 </r>
       <r>     6.6080     0.9405    41.2199 </r>
       <r>     6.7659     0.8933    41.5543 </r>
       <r>     6.9237     1.5576    41.9296 </r>
       <r>     7.0816     1.0513    42.3598 </r>
       <r>     7.2395     0.6532    42.5929 </r>
       <r>     7.3973     0.8477    42.8583 </r>
       <r>     7.5552     1.6102    43.2542 </r>
       <r>     7.7130     1.1709    43.6134 </r>
       <r>     7.8709     0.9501    43.9408 </r>
       <r>     8.0288     1.2525    44.4120 </r>
       <r>     8.1866     1.0854    44.8346 </r>
       <r>     8.3445     1.0551    45.1614 </r>
       <r>     8.5023     0.8449    45.4344 </r>
       <r>     8.6602     1.0529    45.7530 </r>
       <r>     8.8181     1.1112    46.1040 </r>
       <r>     8.9759     1.6438    46.5503 </r>
       <r>     9.1338     1.1377    46.8888 </r>
       <r>     9.2916     0.9089    47.1945 </r>
       <r>     9.4495     1.1189    47.5389 </r>
       <r>     9.6073     1.1228    47.9272 </r>
       <r>     9.7652     1.0946    48.2340 </r>
       <r>     9.9231     1.1674    48.5924 </r>
       <r>    10.0809     1.5041    49.0027 </r>
       <r>    10.2388     2.0954    49.5808 </r>
       <r>    10.3966     2.2316    50.4339 </r>
       <r>    10.5545     1.0050    50.8168 </r>
       <r>    10.7124     1.1722    51.1493 </r>
       <r>    10.8702     1.5872    51.6179 </r>
       <r>    11.0281     1.2491    52.0543 </r>
       <r>    11.1859     0.7142    52.2913 </r>
       <r>    11.3438     0.6684    52.5647 </r>
       <r>    11.5017     0.8460    52.8019 </r>
       <r>    11.6595     0.8877    53.0534 </r>
       <r>    11.8174     1.1002    53.4543 </r>
       <r>    11.9752     1.5836    53.9184 </r>
       <r>    12.1331     1.1535    54.3045 </r>
       <r>    12.2910     0.7779    54.7146 </r>
       <r>    12.4488     0.7550    54.9151 </r>
       <r>    12.6067     0.6100    55.1116 </r>
       <r>    12.7645     0.6895    55.3435 </r>
       <r>    12.9224     1.1439    55.6959 </r>
       <r>    13.0803     0.9092    55.9752 </r>
       <r>    13.2381     0.7212    56.1904 </r>
       <r>    13.3960     0.9243    56.4418 </r>
       <r>    13.5538     0.6165    56.6636 </r>
       <r>    13.7117     1.1125    56.9205 </r>
       <r>    13.8696     0.8988    57.2592 </r>
       <r>    14.0274     1.1531    57.5749 </r>
       <r>    14.1853     1.3166    58.0089 </r>
       <r>    14.3431     1.6874    58.4194 </r>
       <r>    14.5010     1.3099    58.8343 </r>
       <r>    14.6589     1.6748    59.3409 </r>
       <r>    14.8167     1.3046    59.7876 </r>
       <r>    14.9746     1.2769    60.2067 </r>
       <r>    15.1324     1.7949    60.7221 </r>
       <r>    15.2903     2.0298    61.3255 </r>
       <r>    15.4482     1.2417    61.7572 </r>
       <r>    15.6060     1.7645    62.2734 </r>
       <r>    15.7639     1.7656    62.7838 </r>
       <r>    15.9217     1.5326    63.3032 </r>
       <r>    16.0796     1.8859    63.9150 </r>
       <r>    16.2375     2.8683    64.6110 </r>
       <r>    16.3953     1.6321    65.1046 </r>
       <r>    16.5532     2.8135    65.6941 </r>
       <r>    16.7110     2.4902    66.5921 </r>
       <r>    16.8689     2.3618    67.2453 </r>
       <r>    17.0267     2.1549    67.9932 </r>
       <r>    17.1846     1.5607    68.4709 </r>
       <r>    17.3425     1.8877    69.0633 </r>
       <r>    17.5003     1.4071    69.5232 </r>
       <r>    17.6582     1.5332    69.9563 </r>
       <r>    17.8160     1.2366    70.3789 </r>
       <r>    17.9739     1.3187    70.8051 </r>
       <r>    18.1318     1.5079    71.2891 </r>
       <r>    18.2896     2.1920    71.8919 </r>
       <r>    18.4475     1.5412    72.3708 </r>
       <r>    18.6053     1.6671    72.7989 </r>
       <r>    18.7632     1.9090    73.2554 </r>
       <r>    18.9211     1.7323    73.7939 </r>
       <r>    19.0789     1.9252    74.3396 </r>
       <r>    19.2368     2.1450    74.8743 </r>
       <r>    19.3946     2.0533    75.4568 </r>
       <r>    19.5525     2.3786    76.1153 </r>
       <r>    19.7104     1.3653    76.6288 </r>
       <r>    19.8682     2.4387    77.1962 </r>
       <r>    20.0261     1.1871    77.6772 </r>
       <r>    20.1839     1.4339    78.1243 </r>
       <r>    20.3418     1.8301    78.6869 </r>
       <r>    20.4997     1.8937    79.2785 </r>
       <r>    20.6575     2.2424    80.0121 </r>
       <r>    20.8154     1.7353    80.5903 </r>
       <r>    20.9732     2.6239    81.2969 </r>
       <r>    21.1311     2.0971    81.9637 </r>
       <r>    21.2890     2.3281    82.5818 </r>
       <r>    21.4468     2.0670    83.2549 </r>
       <r>    21.6047     1.9708    83.7652 </r>
       <r>    21.7625     2.2115    84.4358 </r>
       <r>    21.9204     2.5950    85.2311 </r>
       <r>    22.0783     2.4595    86.0362 </r>
       <r>    22.2361     1.7307    86.5793 </r>
       <r>    22.3940     1.5948    87.0936 </r>
       <r>    22.5518     2.2678    87.6641 </r>
       <r>    22.7097     1.9686    88.1832 </r>
       <r>    22.8676     1.8971    88.8046 </r>
       <r>    23.0254     1.7768    89.3876 </r>
       <r>    23.1833     1.5005    89.9563 </r>
       <r>    23.3411     2.4270    90.6229 </r>
       <r>    23.4990     1.7142    91.1788 </r>
       <r>    23.6569     2.4038    91.8795 </r>
       <r>    23.8147     2.0317    92.5605 </r>
       <r>    23.9726     2.0528    93.1965 </r>
       <r>    24.1304     1.0508    93.5945 </r>
       <r>    24.2883     0.9361    93.9590 </r>
       <r>    24.4461     1.1069    94.3431 </r>
       <r>    24.6040     0.9283    94.6874 </r>
       <r>    24.7619     0.9520    94.9615 </r>
       <r>    24.9197     0.6798    95.1736 </r>
       <r>    25.0776     0.2895    95.2753 </r>
       <r>    25.2354     0.3851    95.4026 </r>
       <r>    25.3933     0.2664    95.4757 </r>
       <r>    25.5512     0.0954    95.5253 </r>
       <r>    25.7090     0.3207    95.6067 </r>
       <r>    25.8669     0.1328    95.6587 </r>
       <r>    26.0247     0.1292    95.7194 </r>
       <r>    26.1826     0.2788    95.7736 </r>
       <r>    26.3405     0.1497    95.8043 </r>
       <r>    26.4983     0.1389    95.8638 </r>
       <r>    26.6562     0.3454    95.9474 </r>
       <r>    26.8140     0.2293    95.9852 </r>
       <r>    26.9719     0.0000    95.9949 </r>
       <r>    27.1298     0.0000    96.0000 </r>
       <r>    27.2876     0.0000    96.0000 </r>
       <r>    27.4455     0.0000    96.0000 </r>
       <r>    27.6033     0.0000    96.0000 </r>
       <r>    27.7612     0.0000    96.0000 </r>
       <r>    27.9191     0.0000    96.0000 </r>
       <r>    28.0769     0.0000    96.0000 </r>
       <r>    28.2348     0.0000    96.0000 </r>
       <r>    28.3926     0.0000    96.0000 </r>
       <r>    28.5505     0.0000    96.0000 </r>
       <r>    28.7084     0.0000    96.0000 </r>
       <r>    28.8662     0.0000    96.0000 </r>
       <r>    29.0241     0.0000    96.0000 </r>
       <r>    29.1819     0.0000    96.0000 </r>
      </set>
     </set>
    </array>
   </total>
  </dos>
 </calculation>
 <structure name="finalpos" >
  <crystal>
   <varray name="basis" >
    <v>       2.13671296      -5.91749822      -0.00000000 </v>
    <v>       2.13671296       5.91749822       0.00000000 </v>
    <v>       0.00000000       0.00000000       4.25106507 </v>
   </varray>
   <i name="volume">    107.50089215 </i>
   <varray name="rec_basis" >
    <v>       0.23400429      -0.08449517       0.00000000 </v>
    <v>       0.23400429       0.08449517      -0.00000000 </v>
    <v>       0.00000000      -0.00000000       0.23523517 </v>
   </varray>
  </crystal>
  <varray name="positions" >
   <v>       0.37491111       0.62508889       0.25000000 </v>
   <v>       0.62508889       0.37491111       0.75000000 </v>
   <v>       0.14355042       0.85644958       0.25000000 </v>
   <v>       0.85644958       0.14355042       0.75000000 </v>
  </varray>
 </structure>
</modeling>
