<?xml version="1.0" encoding="ISO-8859-1"?>
<modeling>
 <generator>
  <i name="program" type="string">vasp </i>
  <i name="version" type="string">5.4.4.18Apr17-6-g9f103f2a35  </i>
  <i name="subversion" type="string">(build Mar 20 2018 18:07:30) complex            parallel </i>
  <i name="platform" type="string">LinuxGNU </i>
  <i name="date" type="string">2020 07 02 </i>
  <i name="time" type="string">19:54:10 </i>
 </generator>
 <incar>
  <i type="string" name="SYSTEM"> Pbte</i>
  <i type="int" name="ISTART">     0</i>
  <i type="string" name="PREC">accurate</i>
  <i type="logical" name="ADDGRID"> T  </i>
  <i type="int" name="ICHARG">     2</i>
  <i type="int" name="IBRION">     6</i>
  <i type="int" name="NFREE">     4</i>
  <i name="EDIFF">      0.00000010</i>
  <i name="EDIFFG">     -0.00100000</i>
  <i type="int" name="ISIF">     3</i>
  <i name="ENCUT">    600.00000000</i>
  <i name="POTIM">      0.01000000</i>
  <i type="int" name="ISMEAR">    -5</i>
  <i type="logical" name="LWAVE"> F  </i>
  <i type="logical" name="LCHARG"> F  </i>
  <v type="int" name="KPOINT_BSE">    -1     0     0     0</v>
 </incar>
 <structure name="primitive_cell" >
  <crystal>
   <varray name="basis" >
    <v>       3.28431199       3.28431199       0.00000000 </v>
    <v>       3.28431199      -0.00000000      -3.28431199 </v>
    <v>       0.00000000       3.28431199      -3.28431199 </v>
   </varray>
   <i name="volume">     70.85381045 </i>
   <varray name="rec_basis" >
    <v>       0.15223889       0.15223889       0.15223889 </v>
    <v>       0.15223889      -0.15223889      -0.15223889 </v>
    <v>      -0.15223889       0.15223889      -0.15223889 </v>
   </varray>
  </crystal>
  <varray name="positions" >
   <v>       0.00000000       0.00000000       0.00000000 </v>
   <v>      -0.50000000      -0.50000000      -0.50000000 </v>
  </varray>
 </structure>
 <varray name="primitive_index" >
  <v type="int" >        1 </v>
  <v type="int" >        5 </v>
 </varray>
 <kpoints>
  <generation param="Gamma">
   <v type="int" name="divisions">       6        6        6 </v>
   <v name="usershift">      0.00000000       0.00000000       0.00000000 </v>
   <v name="genvec1">      0.16666667       0.00000000       0.00000000 </v>
   <v name="genvec2">      0.00000000       0.16666667       0.00000000 </v>
   <v name="genvec3">      0.00000000       0.00000000       0.16666667 </v>
   <v name="shift">      0.00000000       0.00000000       0.00000000 </v>
  </generation>
  <varray name="kpointlist" >
   <v>       0.00000000       0.00000000       0.00000000 </v>
   <v>       0.16666667       0.00000000       0.00000000 </v>
   <v>       0.33333333       0.00000000       0.00000000 </v>
   <v>       0.50000000       0.00000000       0.00000000 </v>
   <v>       0.16666667       0.16666667       0.00000000 </v>
   <v>       0.33333333       0.16666667       0.00000000 </v>
   <v>       0.50000000       0.16666667       0.00000000 </v>
   <v>       0.33333333       0.33333333       0.00000000 </v>
   <v>       0.50000000       0.33333333       0.00000000 </v>
   <v>       0.50000000       0.50000000       0.00000000 </v>
   <v>       0.16666667       0.16666667       0.16666667 </v>
   <v>       0.33333333       0.16666667       0.16666667 </v>
   <v>       0.50000000       0.16666667       0.16666667 </v>
   <v>       0.33333333       0.33333333       0.16666667 </v>
   <v>       0.50000000       0.33333333       0.16666667 </v>
   <v>       0.50000000       0.50000000       0.16666667 </v>
   <v>       0.33333333       0.33333333       0.33333333 </v>
   <v>       0.50000000       0.33333333       0.33333333 </v>
   <v>       0.50000000       0.50000000       0.33333333 </v>
   <v>       0.50000000       0.50000000       0.50000000 </v>
  </varray>
  <varray name="weights" >
   <v>       0.00462963 </v>
   <v>       0.02777778 </v>
   <v>       0.02777778 </v>
   <v>       0.01388889 </v>
   <v>       0.05555556 </v>
   <v>       0.11111111 </v>
   <v>       0.05555556 </v>
   <v>       0.05555556 </v>
   <v>       0.05555556 </v>
   <v>       0.01388889 </v>
   <v>       0.03703704 </v>
   <v>       0.11111111 </v>
   <v>       0.05555556 </v>
   <v>       0.11111111 </v>
   <v>       0.11111111 </v>
   <v>       0.02777778 </v>
   <v>       0.03703704 </v>
   <v>       0.05555556 </v>
   <v>       0.02777778 </v>
   <v>       0.00462963 </v>
  </varray>
  <varray name="tetrahedronlist"  type="int" >
   <v type="int" >       12        1        2        2        5 </v>
   <v type="int" >       12        2        2        5        5 </v>
   <v type="int" >       12        2        5        5       11 </v>
   <v type="int" >       12        2        3        5        6 </v>
   <v type="int" >       12        2        5        5        6 </v>
   <v type="int" >       12        5        5        6       11 </v>
   <v type="int" >       12        3        5        6        6 </v>
   <v type="int" >       24        5        6        6       12 </v>
   <v type="int" >       24        5        6       11       12 </v>
   <v type="int" >       12        3        4        6        7 </v>
   <v type="int" >       12        3        6        6        7 </v>
   <v type="int" >       12        6        6        7       12 </v>
   <v type="int" >       12        4        6        7        7 </v>
   <v type="int" >       12        6        7        7       13 </v>
   <v type="int" >       12        6        7       12       13 </v>
   <v type="int" >       12        5        6        8       11 </v>
   <v type="int" >       12        6        8       11       12 </v>
   <v type="int" >       12        8       11       12       14 </v>
   <v type="int" >       12        6        7        9       12 </v>
   <v type="int" >       12        6        8        9       12 </v>
   <v type="int" >       12        8        9       12       14 </v>
   <v type="int" >       12        7        9       12       13 </v>
   <v type="int" >       12        9       12       13       15 </v>
   <v type="int" >       12        9       12       14       15 </v>
   <v type="int" >       12        6        7        8       13 </v>
   <v type="int" >       12        7        8        9       13 </v>
   <v type="int" >       12        8        9       13       15 </v>
   <v type="int" >       12        6        8       12       13 </v>
   <v type="int" >       12        8       12       13       14 </v>
   <v type="int" >       12        8       13       14       15 </v>
   <v type="int" >       12        6        6        8       12 </v>
   <v type="int" >       12        6        8       12       14 </v>
   <v type="int" >       12        6       11       12       12 </v>
   <v type="int" >       12        6       12       12       14 </v>
   <v type="int" >       12        2        3        5       11 </v>
   <v type="int" >       12        3        5        6       11 </v>
   <v type="int" >       12        3        6       11       12 </v>
   <v type="int" >       12        8        9       10       14 </v>
   <v type="int" >       12        9       10       14       15 </v>
   <v type="int" >       12       10       14       15       16 </v>
   <v type="int" >       12        8        9        9       15 </v>
   <v type="int" >       12        9        9       10       15 </v>
   <v type="int" >       12        9       10       15       16 </v>
   <v type="int" >       12        8        9       14       15 </v>
   <v type="int" >       12        9       14       15       15 </v>
   <v type="int" >       12        9       15       15       16 </v>
   <v type="int" >       12        6        7        8       14 </v>
   <v type="int" >       12        7        8        9       14 </v>
   <v type="int" >       12        7        9       14       15 </v>
   <v type="int" >       12        6        7       12       14 </v>
   <v type="int" >       12        7       12       13       14 </v>
   <v type="int" >       12        7       13       14       15 </v>
   <v type="int" >       12        3        4        6       12 </v>
   <v type="int" >       12        4        6        7       12 </v>
   <v type="int" >       12        4        7       12       13 </v>
   <v type="int" >       12        8        9       10       16 </v>
   <v type="int" >       12        8        9       15       16 </v>
   <v type="int" >       12        8       14       15       16 </v>
   <v type="int" >       12        6        7        9       15 </v>
   <v type="int" >       12        6        8        9       15 </v>
   <v type="int" >       12        6        8       14       15 </v>
   <v type="int" >       12        6        7       13       15 </v>
   <v type="int" >       12        6       12       13       15 </v>
   <v type="int" >       12        6       12       14       15 </v>
   <v type="int" >       12        3        4        7       13 </v>
   <v type="int" >       12        3        6        7       13 </v>
   <v type="int" >       12        3        6       12       13 </v>
   <v type="int" >       12        5        6        8       14 </v>
   <v type="int" >       12        5        6       12       14 </v>
   <v type="int" >       12        5       11       12       14 </v>
   <v type="int" >       12        2        3        6       12 </v>
   <v type="int" >       12        2        5        6       12 </v>
   <v type="int" >       12        2        5       11       12 </v>
   <v type="int" >       12        1        2        5       11 </v>
   <v type="int" >       12       11       12       12       14 </v>
   <v type="int" >       12       12       12       14       14 </v>
   <v type="int" >       12       12       14       14       17 </v>
   <v type="int" >       12       12       13       14       15 </v>
   <v type="int" >       12       12       14       14       15 </v>
   <v type="int" >       12       14       14       15       17 </v>
   <v type="int" >       12       13       14       15       15 </v>
   <v type="int" >       24       14       15       15       18 </v>
   <v type="int" >       24       14       15       17       18 </v>
   <v type="int" >       12       14       15       16       17 </v>
   <v type="int" >       12       15       16       17       18 </v>
   <v type="int" >       12       16       17       18       19 </v>
   <v type="int" >       12       15       15       16       18 </v>
   <v type="int" >       12       15       16       18       19 </v>
   <v type="int" >       12       15       17       18       18 </v>
   <v type="int" >       12       15       18       18       19 </v>
   <v type="int" >       12       12       13       14       17 </v>
   <v type="int" >       12       13       14       15       17 </v>
   <v type="int" >       12       13       15       17       18 </v>
   <v type="int" >       12       14       15       16       19 </v>
   <v type="int" >       12       14       15       18       19 </v>
   <v type="int" >       12       14       17       18       19 </v>
   <v type="int" >       12       12       13       15       18 </v>
   <v type="int" >       12       12       14       15       18 </v>
   <v type="int" >       12       12       14       17       18 </v>
   <v type="int" >       12       11       12       14       17 </v>
   <v type="int" >       12       17       18       18       19 </v>
   <v type="int" >       12       18       18       19       19 </v>
   <v type="int" >       12       18       19       19       20 </v>
   <v type="int" >       12       17       18       19       20 </v>
  </varray>
  <i name="volumeweight">      0.00077160 </i>
 </kpoints>
 <parameters>
  <separator name="general" >
   <i type="string" name="SYSTEM">Pbte</i>
   <i type="logical" name="LCOMPAT"> F  </i>
  </separator>
  <separator name="electronic" >
   <i type="string" name="PREC">accura</i>
   <i name="ENMAX">    600.00000000</i>
   <i name="ENAUG">    391.91400000</i>
   <i name="EDIFF">      0.00000010</i>
   <i type="int" name="IALGO">    38</i>
   <i type="int" name="IWAVPR">    11</i>
   <i type="int" name="NBANDS">    48</i>
   <i name="NELECT">     80.00000000</i>
   <i type="int" name="TURBO">     0</i>
   <i type="int" name="IRESTART">     0</i>
   <i type="int" name="NREBOOT">     0</i>
   <i type="int" name="NMIN">     0</i>
   <i name="EREF">      0.00000000</i>
   <separator name="electronic smearing" >
    <i type="int" name="ISMEAR">    -5</i>
    <i name="SIGMA">      0.20000000</i>
    <i name="KSPACING">      0.50000000</i>
    <i type="logical" name="KGAMMA"> T  </i>
   </separator>
   <separator name="electronic projectors" >
    <i type="logical" name="LREAL"> F  </i>
    <v name="ROPT">      0.00000000      0.00000000</v>
    <i type="int" name="LMAXPAW">  -100</i>
    <i type="int" name="LMAXMIX">     2</i>
    <i type="logical" name="NLSPLINE"> F  </i>
   </separator>
   <separator name="electronic startup" >
    <i type="int" name="ISTART">     0</i>
    <i type="int" name="ICHARG">     2</i>
    <i type="int" name="INIWAV">     1</i>
   </separator>
   <separator name="electronic spin" >
    <i type="int" name="ISPIN">     1</i>
    <i type="logical" name="LNONCOLLINEAR"> F  </i>
    <v name="MAGMOM">      1.00000000      1.00000000      1.00000000      1.00000000      1.00000000      1.00000000      1.00000000      1.00000000</v>
    <i name="NUPDOWN">     -1.00000000</i>
    <i type="logical" name="LSORBIT"> F  </i>
    <v name="SAXIS">      0.00000000      0.00000000      1.00000000</v>
    <i type="logical" name="LSPIRAL"> F  </i>
    <v name="QSPIRAL">      0.00000000      0.00000000      0.00000000</v>
    <i type="logical" name="LZEROZ"> F  </i>
   </separator>
   <separator name="electronic exchange-correlation" >
    <i type="logical" name="LASPH"> F  </i>
    <i type="logical" name="LMETAGGA"> F  </i>
   </separator>
   <separator name="electronic convergence" >
    <i type="int" name="NELM">    60</i>
    <i type="int" name="NELMDL">    -5</i>
    <i type="int" name="NELMIN">     2</i>
    <i name="ENINI">    600.00000000</i>
    <separator name="electronic convergence detail" >
     <i type="logical" name="LDIAG"> T  </i>
     <i type="logical" name="LSUBROT"> F  </i>
     <i name="WEIMIN">      0.00100000</i>
     <i name="EBREAK">      0.00000000</i>
     <i name="DEPER">      0.30000000</i>
     <i type="int" name="NRMM">     4</i>
     <i name="TIME">      0.40000000</i>
    </separator>
   </separator>
   <separator name="electronic mixer" >
    <i name="AMIX">      0.40000000</i>
    <i name="BMIX">      1.00000000</i>
    <i name="AMIN">      0.10000000</i>
    <i name="AMIX_MAG">      1.60000000</i>
    <i name="BMIX_MAG">      1.00000000</i>
    <separator name="electronic mixer details" >
     <i type="int" name="IMIX">     4</i>
     <i type="logical" name="MIXFIRST"> F  </i>
     <i type="int" name="MAXMIX">   -45</i>
     <i name="WC">    100.00000000</i>
     <i type="int" name="INIMIX">     1</i>
     <i type="int" name="MIXPRE">     1</i>
     <i type="int" name="MREMOVE">     5</i>
    </separator>
   </separator>
   <separator name="electronic dipolcorrection" >
    <i type="logical" name="LDIPOL"> F  </i>
    <i type="logical" name="LMONO"> F  </i>
    <i type="int" name="IDIPOL">     0</i>
    <i name="EPSILON">      1.00000000</i>
    <v name="DIPOL">   -100.00000000   -100.00000000   -100.00000000</v>
    <i name="EFIELD">      0.00000000</i>
   </separator>
  </separator>
  <separator name="grids" >
   <i type="int" name="NGX">    54</i>
   <i type="int" name="NGY">    54</i>
   <i type="int" name="NGZ">    54</i>
   <i type="int" name="NGXF">   108</i>
   <i type="int" name="NGYF">   108</i>
   <i type="int" name="NGZF">   108</i>
   <i type="logical" name="ADDGRID"> T  </i>
  </separator>
  <separator name="ionic" >
   <i type="int" name="NSW">   133</i>
   <i type="int" name="IBRION">     6</i>
   <i type="int" name="MDALGO">     0</i>
   <i type="int" name="ISIF">     3</i>
   <i name="PSTRESS">      0.00000000</i>
   <i name="EDIFFG">     -0.00100000</i>
   <i type="int" name="NFREE">     4</i>
   <i name="POTIM">      0.01000000</i>
   <i name="SMASS">     -3.00000000</i>
   <i name="SCALEE">      1.00000000</i>
  </separator>
  <separator name="ionic md" >
   <i name="TEBEG">      0.00010000</i>
   <i name="TEEND">      0.00010000</i>
   <i type="int" name="NBLOCK">     1</i>
   <i type="int" name="KBLOCK">   133</i>
   <i type="int" name="NPACO">   256</i>
   <i name="APACO">     16.00000000</i>
  </separator>
  <separator name="symmetry" >
   <i type="int" name="ISYM">     2</i>
   <i name="SYMPREC">      0.00001000</i>
  </separator>
  <separator name="dos" >
   <i type="int" name="LORBIT">     0</i>
   <v name="RWIGS">     -1.00000000     -1.00000000</v>
   <i type="int" name="NEDOS">   301</i>
   <i name="EMIN">     10.00000000</i>
   <i name="EMAX">    -10.00000000</i>
   <i name="EFERMI">      0.00000000</i>
  </separator>
  <separator name="writing" >
   <i type="int" name="NWRITE">     2</i>
   <i type="logical" name="LWAVE"> F  </i>
   <i type="logical" name="LDOWNSAMPLE"> F  </i>
   <i type="logical" name="LCHARG"> F  </i>
   <i type="logical" name="LPARD"> F  </i>
   <i type="logical" name="LVTOT"> F  </i>
   <i type="logical" name="LVHAR"> F  </i>
   <i type="logical" name="LELF"> F  </i>
   <i type="logical" name="LOPTICS"> F  </i>
   <v name="STM">      0.00000000      0.00000000      0.00000000      0.00000000      0.00000000      0.00000000      0.00000000</v>
  </separator>
  <separator name="performance" >
   <i type="int" name="NPAR">     8</i>
   <i type="int" name="NSIM">     4</i>
   <i type="int" name="NBLK">    -1</i>
   <i type="logical" name="LPLANE"> T  </i>
   <i type="logical" name="LSCALAPACK"> T  </i>
   <i type="logical" name="LSCAAWARE"> F  </i>
   <i type="logical" name="LSCALU"> F  </i>
   <i type="logical" name="LASYNC"> F  </i>
   <i type="logical" name="LORBITALREAL"> F  </i>
  </separator>
  <separator name="miscellaneous" >
   <i type="int" name="IDIOT">     3</i>
   <i type="int" name="ISPECIAL">     0</i>
   <i type="logical" name="LMUSIC"> F  </i>
   <v name="POMASS">    127.60000000    207.20000000</v>
   <v name="DARWINR">      0.00000000      0.00000000</v>
   <v name="DARWINV">      1.00000000      1.00000000</v>
   <i type="logical" name="LCORR"> T  </i>
  </separator>
  <i type="logical" name="GGA_COMPAT"> T  </i>
  <i type="logical" name="LBERRY"> F  </i>
  <i type="int" name="ICORELEVEL">     0</i>
  <i type="logical" name="LDAU"> F  </i>
  <i type="int" name="I_CONSTRAINED_M">     0</i>
  <separator name="electronic exchange-correlation" >
   <i type="string" name="GGA">--</i>
   <i type="int" name="VOSKOWN">     0</i>
   <i type="logical" name="LHFCALC"> F  </i>
   <i type="string" name="PRECFOCK"></i>
   <i type="logical" name="LSYMGRAD"> F  </i>
   <i type="logical" name="LHFONE"> F  </i>
   <i type="logical" name="LRHFCALC"> F  </i>
   <i type="logical" name="LTHOMAS"> F  </i>
   <i type="logical" name="LMODELHF"> F  </i>
   <i name="ENCUT4O">     -1.00000000</i>
   <i type="int" name="EXXOEP">     0</i>
   <i type="int" name="FOURORBIT">     0</i>
   <i name="AEXX">      0.00000000</i>
   <i name="HFALPHA">      0.00000000</i>
   <i name="MCALPHA">      0.00000000</i>
   <i name="ALDAX">      1.00000000</i>
   <i name="AGGAX">      1.00000000</i>
   <i name="ALDAC">      1.00000000</i>
   <i name="AGGAC">      1.00000000</i>
   <i type="int" name="NKREDX">     1</i>
   <i type="int" name="NKREDY">     1</i>
   <i type="int" name="NKREDZ">     1</i>
   <i type="logical" name="SHIFTRED"> F  </i>
   <i type="logical" name="ODDONLY"> F  </i>
   <i type="logical" name="EVENONLY"> F  </i>
   <i type="int" name="LMAXFOCK">     0</i>
   <i type="int" name="NMAXFOCKAE">     0</i>
   <i type="logical" name="LFOCKAEDFT"> F  </i>
   <i name="HFSCREEN">      0.00000000</i>
   <i name="HFSCREENC">      0.00000000</i>
   <i type="int" name="NBANDSGWLOW">     0</i>
  </separator>
  <separator name="vdW DFT" >
   <i type="logical" name="LUSE_VDW"> F  </i>
   <i name="Zab_VDW">     -0.84910000</i>
   <i name="PARAM1">      0.12340000</i>
   <i name="PARAM2">      1.00000000</i>
   <i name="PARAM3">      0.00000000</i>
  </separator>
  <separator name="model GW" >
   <i type="int" name="MODEL_GW">     0</i>
   <i name="MODEL_EPS0">     21.25614313</i>
   <i name="MODEL_ALPHA">      1.00000000</i>
  </separator>
  <separator name="linear response parameters" >
   <i type="logical" name="LEPSILON"> F  </i>
   <i type="logical" name="LRPA"> F  </i>
   <i type="logical" name="LNABLA"> F  </i>
   <i type="logical" name="LVEL"> F  </i>
   <i type="int" name="KINTER">     0</i>
   <i name="CSHIFT">      0.10000000</i>
   <i name="OMEGAMAX">     -1.00000000</i>
   <i name="DEG_THRESHOLD">      0.00200000</i>
   <i name="RTIME">     -0.10000000</i>
   <i name="WPLASMAI">      0.00000000</i>
   <v name="DFIELD">      0.00000000      0.00000000      0.00000000</v>
   <v name="WPLASMA">      0.00000000      0.00000000      0.00000000      0.00000000      0.00000000      0.00000000      0.00000000      0.00000000      0.00000000</v>
  </separator>
  <separator name="orbital magnetization" >
   <i type="logical" name="NUCIND"> F  </i>
   <v name="MAGPOS">      0.00000000      0.00000000      0.00000000</v>
   <i type="logical" name="LNICSALL"> T  </i>
   <i type="logical" name="ORBITALMAG"> F  </i>
   <i type="logical" name="LMAGBLOCH"> F  </i>
   <i type="logical" name="LCHIMAG"> F  </i>
   <i type="logical" name="LGAUGE"> T  </i>
   <i type="int" name="MAGATOM">     0</i>
   <v name="MAGDIPOL">      0.00000000      0.00000000      0.00000000</v>
   <v name="AVECCONST">      0.00000000      0.00000000      0.00000000</v>
  </separator>
  <separator name="response functions" >
   <i type="logical" name="LADDER"> F  </i>
   <i type="logical" name="LRPAFORCE"> F  </i>
   <i type="logical" name="LFXC"> F  </i>
   <i type="logical" name="LHARTREE"> T  </i>
   <i type="int" name="IBSE">     0</i>
   <v type="int" name="KPOINT">    -1     0     0     0</v>
   <i type="logical" name="LTCTE"> F  </i>
   <i type="logical" name="LTETE"> F  </i>
   <i type="logical" name="LTRIPLET"> F  </i>
   <i type="logical" name="LFXCEPS"> F  </i>
   <i type="logical" name="LFXHEG"> F  </i>
   <i type="int" name="NATURALO">     2</i>
   <i type="logical" name="L2ORDER"> F  </i>
   <i type="logical" name="LMP2LT"> F  </i>
   <i type="logical" name="LUSEW"> F  </i>
   <i name="ENCUTGW">     -2.00000000</i>
   <i name="ENCUTGWSOFT">     -2.00000000</i>
   <i name="ENCUTLF">     -1.00000000</i>
   <i type="int" name="LMAXMP2">    -1</i>
   <i name="SCISSOR">      0.00000000</i>
   <i type="int" name="NOMEGA">     0</i>
   <i type="int" name="NOMEGAR">     0</i>
   <i type="int" name="NBANDSGW">    -1</i>
   <i type="int" name="NBANDSO">    -1</i>
   <i type="int" name="NBANDSV">    -1</i>
   <i type="int" name="NELM">     1</i>
   <i type="int" name="NELMHF">     1</i>
   <i type="int" name="DIM">     3</i>
   <i type="int" name="ANTIRES">     0</i>
   <i name="OMEGAMAX">    -30.00000000</i>
   <i name="OMEGAMIN">    -30.00000000</i>
   <i name="OMEGATL">   -200.00000000</i>
   <i type="int" name="OMEGAGRID">   140</i>
   <i name="CSHIFT">     -0.10000000</i>
   <i type="logical" name="SELFENERGY"> F  </i>
   <i type="logical" name="LSPECTRAL"> F  </i>
   <i type="logical" name="LSPECTRALGW"> F  </i>
   <i type="logical" name="LSINGLES"> F  </i>
   <i type="logical" name="LFERMIGW"> F  </i>
   <i type="logical" name="ODDONLYGW"> F  </i>
   <i type="logical" name="EVENONLYGW"> F  </i>
   <i type="int" name="NKREDLFX">     1</i>
   <i type="int" name="NKREDLFY">     1</i>
   <i type="int" name="NKREDLFZ">     1</i>
   <i type="int" name="MAXMEM">  2800</i>
   <i type="int" name="TELESCOPE">     0</i>
   <i type="int" name="TAUPAR">     1</i>
   <i type="int" name="OMEGAPAR">    -1</i>
   <i name="LAMBDA">      1.00000000</i>
  </separator>
  <separator name="External order field" >
   <i name="OFIELD_KAPPA">      0.00000000</i>
   <v name="OFIELD_K">      0.00000000      0.00000000      0.00000000</v>
   <i name="OFIELD_Q6_NEAR">      0.00000000</i>
   <i name="OFIELD_Q6_FAR">      0.00000000</i>
   <i name="OFIELD_A">      0.00000000</i>
  </separator>
 </parameters>
 <atominfo>
  <atoms>       8 </atoms>
  <types>       2 </types>
  <array name="atoms" >
   <dimension dim="1">ion</dimension>
   <field type="string">element</field>
   <field type="int">atomtype</field>
   <set>
    <rc><c>Te</c><c>   1</c></rc>
    <rc><c>Te</c><c>   1</c></rc>
    <rc><c>Te</c><c>   1</c></rc>
    <rc><c>Te</c><c>   1</c></rc>
    <rc><c>Pb</c><c>   2</c></rc>
    <rc><c>Pb</c><c>   2</c></rc>
    <rc><c>Pb</c><c>   2</c></rc>
    <rc><c>Pb</c><c>   2</c></rc>
   </set>
  </array>
  <array name="atomtypes" >
   <dimension dim="1">type</dimension>
   <field type="int">atomspertype</field>
   <field type="string">element</field>
   <field>mass</field>
   <field>valence</field>
   <field type="string">pseudopotential</field>
   <set>
    <rc><c>   4</c><c>Te</c><c>    127.60000000</c><c>      6.00000000</c><c>  PAW_PBE Te 08Apr2002                  </c></rc>
    <rc><c>   4</c><c>Pb</c><c>    207.20000000</c><c>     14.00000000</c><c>  PAW_PBE Pb_d 06Sep2000                </c></rc>
   </set>
  </array>
 </atominfo>
 <structure name="initialpos" >
  <crystal>
   <varray name="basis" >
    <v>       6.56862397       0.00000000       0.00000000 </v>
    <v>       0.00000000       6.56862397       0.00000000 </v>
    <v>       0.00000000       0.00000000       6.56862397 </v>
   </varray>
   <i name="volume">    283.41524179 </i>
   <varray name="rec_basis" >
    <v>       0.15223889       0.00000000       0.00000000 </v>
    <v>       0.00000000       0.15223889       0.00000000 </v>
    <v>       0.00000000       0.00000000       0.15223889 </v>
   </varray>
  </crystal>
  <varray name="positions" >
   <v>       0.00000000       0.00000000       0.00000000 </v>
   <v>       0.00000000       0.50000000       0.50000000 </v>
   <v>       0.50000000       0.00000000       0.50000000 </v>
   <v>       0.50000000       0.50000000       0.00000000 </v>
   <v>       0.50000000       0.00000000       0.00000000 </v>
   <v>       0.50000000       0.50000000       0.50000000 </v>
   <v>       0.00000000       0.00000000       0.50000000 </v>
   <v>       0.00000000       0.50000000       0.00000000 </v>
  </varray>
 </structure>
 <calculation>
  <scstep>
   <time name="dav">    3.51    3.52</time>
   <time name="total">    3.82    3.83</time>
   <energy>
    <i name="alphaZ">    137.20705394 </i>
    <i name="ewald">  -5466.32731093 </i>
    <i name="hartreedc">  -2066.58472965 </i>
    <i name="XCdc">     38.38044039 </i>
    <i name="pawpsdc">   6572.61797964 </i>
    <i name="pawaedc">  -6352.00421900 </i>
    <i name="eentropy">      0.00000000 </i>
    <i name="bandstr">    480.82384428 </i>
    <i name="atom">   7539.55497359 </i>
    <i name="e_fr_energy">    883.66803226 </i>
    <i name="e_wo_entrp">    883.66803226 </i>
    <i name="e_0_energy">    883.66803226 </i>
   </energy>
  </scstep>
  <scstep>
   <time name="dav">    3.52    3.53</time>
   <time name="total">    3.53    3.53</time>
   <energy>
    <i name="e_fr_energy">     80.31353761 </i>
    <i name="e_wo_entrp">     80.31353761 </i>
    <i name="e_0_energy">     80.31353761 </i>
   </energy>
  </scstep>
  <scstep>
   <time name="dav">    4.09    4.10</time>
   <time name="total">    4.09    4.10</time>
   <energy>
    <i name="e_fr_energy">    -24.42287739 </i>
    <i name="e_wo_entrp">    -24.42287739 </i>
    <i name="e_0_energy">    -24.42287739 </i>
   </energy>
  </scstep>
  <scstep>
   <time name="dav">    3.94    3.94</time>
   <time name="total">    3.94    3.94</time>
   <energy>
    <i name="e_fr_energy">    -30.33386189 </i>
    <i name="e_wo_entrp">    -30.33386189 </i>
    <i name="e_0_energy">    -30.33386189 </i>
   </energy>
  </scstep>
  <scstep>
   <time name="dav">    4.25    4.26</time>
   <time name="total">    4.84    4.85</time>
   <energy>
    <i name="e_fr_energy">    -30.66393729 </i>
    <i name="e_wo_entrp">    -30.66393729 </i>
    <i name="e_0_energy">    -30.66393729 </i>
   </energy>
  </scstep>
  <scstep>
   <time name="dav">    4.32    4.33</time>
   <time name="total">    5.21    5.22</time>
   <energy>
    <i name="e_fr_energy">    -30.09356145 </i>
    <i name="e_wo_entrp">    -30.09356145 </i>
    <i name="e_0_energy">    -30.09356145 </i>
   </energy>
  </scstep>
  <scstep>
   <time name="dav">    4.31    4.31</time>
   <time name="total">    5.20    5.20</time>
   <energy>
    <i name="e_fr_energy">    -30.08762663 </i>
    <i name="e_wo_entrp">    -30.08762663 </i>
    <i name="e_0_energy">    -30.08762663 </i>
   </energy>
  </scstep>
  <scstep>
   <time name="dav">    3.98    3.98</time>
   <time name="total">    4.87    4.88</time>
   <energy>
    <i name="e_fr_energy">    -30.08992262 </i>
    <i name="e_wo_entrp">    -30.08992262 </i>
    <i name="e_0_energy">    -30.08992262 </i>
   </energy>
  </scstep>
  <scstep>
   <time name="dav">    4.18    4.25</time>
   <time name="total">    5.07    5.14</time>
   <energy>
    <i name="e_fr_energy">    -30.09195250 </i>
    <i name="e_wo_entrp">    -30.09195250 </i>
    <i name="e_0_energy">    -30.09195250 </i>
   </energy>
  </scstep>
  <scstep>
   <time name="dav">    4.27    4.28</time>
   <time name="total">    5.16    5.17</time>
   <energy>
    <i name="e_fr_energy">    -30.09169468 </i>
    <i name="e_wo_entrp">    -30.09169468 </i>
    <i name="e_0_energy">    -30.09169468 </i>
   </energy>
  </scstep>
  <scstep>
   <time name="dav">    3.94    3.94</time>
   <time name="total">    4.82    4.83</time>
   <energy>
    <i name="e_fr_energy">    -30.09179558 </i>
    <i name="e_wo_entrp">    -30.09179558 </i>
    <i name="e_0_energy">    -30.09179558 </i>
   </energy>
  </scstep>
  <scstep>
   <time name="dav">    4.02    4.03</time>
   <time name="total">    4.91    4.93</time>
   <energy>
    <i name="e_fr_energy">    -30.09179364 </i>
    <i name="e_wo_entrp">    -30.09179364 </i>
    <i name="e_0_energy">    -30.09179364 </i>
   </energy>
  </scstep>
  <scstep>
   <time name="dav">    3.90    3.90</time>
   <time name="total">    4.79    4.79</time>
   <energy>
    <i name="e_fr_energy">    -30.09178702 </i>
    <i name="e_wo_entrp">    -30.09178702 </i>
    <i name="e_0_energy">    -30.09178702 </i>
   </energy>
  </scstep>
  <scstep>
   <time name="dav">    4.30    4.30</time>
   <time name="total">    5.20    5.20</time>
   <energy>
    <i name="e_fr_energy">    -30.09178694 </i>
    <i name="e_wo_entrp">    -30.09178694 </i>
    <i name="e_0_energy">    -30.09178694 </i>
   </energy>
  </scstep>
  <scstep>
   <time name="dav">    3.05    3.13</time>
   <time name="total">    3.94    4.02</time>
   <energy>
    <i name="e_fr_energy">    -30.09178744 </i>
    <i name="e_wo_entrp">    -30.09178744 </i>
    <i name="e_0_energy">    -30.09178744 </i>
   </energy>
  </scstep>
  <scstep>
   <time name="dav">    2.83    2.83</time>
   <time name="total">    3.72    3.73</time>
   <energy>
    <i name="e_fr_energy">    -30.09178772 </i>
    <i name="e_wo_entrp">    -30.09178772 </i>
    <i name="e_0_energy">    -30.09178772 </i>
   </energy>
  </scstep>
  <scstep>
   <time name="dav">    2.74    2.74</time>
   <time name="total">    3.04    3.04</time>
   <energy>
    <i name="alphaZ">    137.20705394 </i>
    <i name="ewald">  -5466.32731093 </i>
    <i name="hartreedc">  -2050.81594461 </i>
    <i name="XCdc">     38.88844675 </i>
    <i name="pawpsdc">   7379.25085755 </i>
    <i name="pawaedc">  -7155.87893813 </i>
    <i name="eentropy">      0.00000000 </i>
    <i name="bandstr">   -451.97092583 </i>
    <i name="atom">   7539.55497359 </i>
    <i name="e_fr_energy">    -30.09178767 </i>
    <i name="e_wo_entrp">    -30.09178767 </i>
    <i name="e_0_energy">    -30.09178767 </i>
   </energy>
  </scstep>
  <structure>
   <crystal>
    <varray name="basis" >
     <v>       6.56862397       0.00000000       0.00000000 </v>
     <v>       0.00000000       6.56862397       0.00000000 </v>
     <v>       0.00000000       0.00000000       6.56862397 </v>
    </varray>
    <i name="volume">    283.41524179 </i>
    <varray name="rec_basis" >
     <v>       0.15223889       0.00000000       0.00000000 </v>
     <v>       0.00000000       0.15223889       0.00000000 </v>
     <v>       0.00000000       0.00000000       0.15223889 </v>
    </varray>
   </crystal>
   <varray name="positions" >
    <v>       0.00000000       0.00000000       0.00000000 </v>
    <v>       0.00000000       0.50000000       0.50000000 </v>
    <v>       0.50000000       0.00000000       0.50000000 </v>
    <v>       0.50000000       0.50000000       0.00000000 </v>
    <v>       0.50000000       0.00000000       0.00000000 </v>
    <v>       0.50000000       0.50000000       0.50000000 </v>
    <v>       0.00000000       0.00000000       0.50000000 </v>
    <v>       0.00000000       0.50000000       0.00000000 </v>
   </varray>
  </structure>
  <varray name="forces" >
   <v>      -0.00000000       0.00000000       0.00000000 </v>
   <v>      -0.00000000      -0.00000000       0.00000000 </v>
   <v>       0.00000000      -0.00000000       0.00000000 </v>
   <v>       0.00000000       0.00000000      -0.00000000 </v>
   <v>      -0.00000000      -0.00000000      -0.00000000 </v>
   <v>      -0.00000000       0.00000000      -0.00000000 </v>
   <v>       0.00000000       0.00000000      -0.00000000 </v>
   <v>       0.00000000      -0.00000000       0.00000000 </v>
  </varray>
  <varray name="stress" >
   <v>       0.01404553       0.00000000      -0.00000000 </v>
   <v>      -0.00000000       0.01404553       0.00000000 </v>
   <v>       0.00000000      -0.00000000       0.01404553 </v>
  </varray>
  <energy>
   <i name="e_fr_energy">    -30.09178767 </i>
   <i name="e_wo_entrp">    -30.09178767 </i>
   <i name="e_0_energy">      0.00000000 </i>
  </energy>
  <kpoints>
   <generation param="Gamma">
    <v type="int" name="divisions">       6        6        6 </v>
    <v name="usershift">      0.00000000       0.00000000       0.00000000 </v>
    <v name="genvec1">      0.16666667       0.00000000       0.00000000 </v>
    <v name="genvec2">      0.00000000       0.16666667       0.00000000 </v>
    <v name="genvec3">      0.00000000       0.00000000       0.16666667 </v>
    <v name="shift">      0.00000000       0.00000000       0.00000000 </v>
   </generation>
   <varray name="kpointlist" >
    <v>       0.00000000       0.00000000       0.00000000 </v>
    <v>       0.16666667       0.00000000       0.00000000 </v>
    <v>       0.33333333       0.00000000       0.00000000 </v>
    <v>       0.50000000       0.00000000       0.00000000 </v>
    <v>       0.00000000       0.16666667       0.00000000 </v>
    <v>       0.16666667       0.16666667       0.00000000 </v>
    <v>       0.33333333       0.16666667       0.00000000 </v>
    <v>       0.50000000       0.16666667       0.00000000 </v>
    <v>       0.00000000       0.33333333       0.00000000 </v>
    <v>       0.16666667       0.33333333       0.00000000 </v>
    <v>       0.33333333       0.33333333       0.00000000 </v>
    <v>       0.50000000       0.33333333       0.00000000 </v>
    <v>       0.00000000       0.50000000       0.00000000 </v>
    <v>       0.16666667       0.50000000       0.00000000 </v>
    <v>       0.33333333       0.50000000       0.00000000 </v>
    <v>       0.50000000       0.50000000       0.00000000 </v>
    <v>       0.00000000       0.16666667       0.16666667 </v>
    <v>       0.16666667       0.16666667       0.16666667 </v>
    <v>       0.33333333       0.16666667       0.16666667 </v>
    <v>       0.50000000       0.16666667       0.16666667 </v>
    <v>       0.00000000       0.33333333       0.16666667 </v>
    <v>       0.16666667       0.33333333       0.16666667 </v>
    <v>       0.33333333       0.33333333       0.16666667 </v>
    <v>       0.50000000       0.33333333       0.16666667 </v>
    <v>       0.00000000       0.50000000       0.16666667 </v>
    <v>       0.16666667       0.50000000       0.16666667 </v>
    <v>       0.33333333       0.50000000       0.16666667 </v>
    <v>       0.50000000       0.50000000       0.16666667 </v>
    <v>       0.00000000       0.33333333       0.33333333 </v>
    <v>       0.16666667       0.33333333       0.33333333 </v>
    <v>       0.33333333       0.33333333       0.33333333 </v>
    <v>       0.50000000       0.33333333       0.33333333 </v>
    <v>       0.00000000       0.50000000       0.33333333 </v>
    <v>       0.16666667       0.50000000       0.33333333 </v>
    <v>       0.33333333       0.50000000       0.33333333 </v>
    <v>       0.50000000       0.50000000       0.33333333 </v>
    <v>       0.00000000       0.50000000       0.50000000 </v>
    <v>       0.16666667       0.50000000       0.50000000 </v>
    <v>       0.33333333       0.50000000       0.50000000 </v>
    <v>       0.50000000       0.50000000       0.50000000 </v>
   </varray>
   <varray name="weights" >
    <v>       0.00462963 </v>
    <v>       0.00925926 </v>
    <v>       0.00925926 </v>
    <v>       0.00462963 </v>
    <v>       0.01851852 </v>
    <v>       0.03703704 </v>
    <v>       0.03703704 </v>
    <v>       0.01851852 </v>
    <v>       0.01851852 </v>
    <v>       0.03703704 </v>
    <v>       0.03703704 </v>
    <v>       0.01851852 </v>
    <v>       0.00925926 </v>
    <v>       0.01851852 </v>
    <v>       0.01851852 </v>
    <v>       0.00925926 </v>
    <v>       0.01851852 </v>
    <v>       0.03703704 </v>
    <v>       0.03703704 </v>
    <v>       0.01851852 </v>
    <v>       0.03703704 </v>
    <v>       0.07407407 </v>
    <v>       0.07407407 </v>
    <v>       0.03703704 </v>
    <v>       0.01851852 </v>
    <v>       0.03703704 </v>
    <v>       0.03703704 </v>
    <v>       0.01851852 </v>
    <v>       0.01851852 </v>
    <v>       0.03703704 </v>
    <v>       0.03703704 </v>
    <v>       0.01851852 </v>
    <v>       0.01851852 </v>
    <v>       0.03703704 </v>
    <v>       0.03703704 </v>
    <v>       0.01851852 </v>
    <v>       0.00462963 </v>
    <v>       0.00925926 </v>
    <v>       0.00925926 </v>
    <v>       0.00462963 </v>
   </varray>
   <varray name="tetrahedronlist"  type="int" >
    <v type="int" >        4        1        2        5        6 </v>
    <v type="int" >        4        1        5        5        6 </v>
    <v type="int" >        4        5        5        6       17 </v>
    <v type="int" >        4        2        5        6        6 </v>
    <v type="int" >        4        5        6        6       18 </v>
    <v type="int" >        4        5        6       17       18 </v>
    <v type="int" >        4        2        3        6        7 </v>
    <v type="int" >        4        2        6        6        7 </v>
    <v type="int" >        4        6        6        7       18 </v>
    <v type="int" >        4        3        6        7        7 </v>
    <v type="int" >        4        6        7        7       19 </v>
    <v type="int" >        4        6        7       18       19 </v>
    <v type="int" >        4        3        4        7        8 </v>
    <v type="int" >        4        3        7        7        8 </v>
    <v type="int" >        4        7        7        8       19 </v>
    <v type="int" >        4        4        7        8        8 </v>
    <v type="int" >        4        7        8        8       20 </v>
    <v type="int" >        4        7        8       19       20 </v>
    <v type="int" >        4        5        6       10       17 </v>
    <v type="int" >        4        5        9       10       17 </v>
    <v type="int" >        4        9       10       17       21 </v>
    <v type="int" >        4        6       10       17       18 </v>
    <v type="int" >        4       10       17       18       22 </v>
    <v type="int" >        4       10       17       21       22 </v>
    <v type="int" >        4        6        7       11       18 </v>
    <v type="int" >        4        6       10       11       18 </v>
    <v type="int" >        4       10       11       18       22 </v>
    <v type="int" >        4        7       11       18       19 </v>
    <v type="int" >        4       11       18       19       23 </v>
    <v type="int" >        4       11       18       22       23 </v>
    <v type="int" >        4        7        8       12       19 </v>
    <v type="int" >        4        7       11       12       19 </v>
    <v type="int" >        4       11       12       19       23 </v>
    <v type="int" >        4        8       12       19       20 </v>
    <v type="int" >        4       12       19       20       24 </v>
    <v type="int" >        4       12       19       23       24 </v>
    <v type="int" >        4        7        8       11       20 </v>
    <v type="int" >        4        8       11       12       20 </v>
    <v type="int" >        4       11       12       20       24 </v>
    <v type="int" >        4        7       11       19       20 </v>
    <v type="int" >        4       11       19       20       23 </v>
    <v type="int" >        4       11       20       23       24 </v>
    <v type="int" >        4        6        7       10       19 </v>
    <v type="int" >        4        7       10       11       19 </v>
    <v type="int" >        4       10       11       19       23 </v>
    <v type="int" >        4        6       10       18       19 </v>
    <v type="int" >        4       10       18       19       22 </v>
    <v type="int" >        4       10       19       22       23 </v>
    <v type="int" >        4        5        6        9       18 </v>
    <v type="int" >        4        6        9       10       18 </v>
    <v type="int" >        4        9       10       18       22 </v>
    <v type="int" >        4        5        9       17       18 </v>
    <v type="int" >        4        9       17       18       21 </v>
    <v type="int" >        4        9       18       21       22 </v>
    <v type="int" >        4        9       10       14       21 </v>
    <v type="int" >        4        9       13       14       21 </v>
    <v type="int" >        4       13       14       21       25 </v>
    <v type="int" >        4       10       14       21       22 </v>
    <v type="int" >        4       14       21       22       26 </v>
    <v type="int" >        4       14       21       25       26 </v>
    <v type="int" >        4       10       11       15       22 </v>
    <v type="int" >        4       10       14       15       22 </v>
    <v type="int" >        4       14       15       22       26 </v>
    <v type="int" >        4       11       15       22       23 </v>
    <v type="int" >        4       15       22       23       27 </v>
    <v type="int" >        4       15       22       26       27 </v>
    <v type="int" >        4       11       12       16       23 </v>
    <v type="int" >        4       11       15       16       23 </v>
    <v type="int" >        4       15       16       23       27 </v>
    <v type="int" >        4       12       16       23       24 </v>
    <v type="int" >        4       16       23       24       28 </v>
    <v type="int" >        4       16       23       27       28 </v>
    <v type="int" >        4       11       12       15       24 </v>
    <v type="int" >        4       12       15       16       24 </v>
    <v type="int" >        4       15       16       24       28 </v>
    <v type="int" >        4       11       15       23       24 </v>
    <v type="int" >        4       15       23       24       27 </v>
    <v type="int" >        4       15       24       27       28 </v>
    <v type="int" >        4       10       11       14       23 </v>
    <v type="int" >        4       11       14       15       23 </v>
    <v type="int" >        4       14       15       23       27 </v>
    <v type="int" >        4       10       14       22       23 </v>
    <v type="int" >        4       14       22       23       26 </v>
    <v type="int" >        4       14       23       26       27 </v>
    <v type="int" >        4        9       10       13       22 </v>
    <v type="int" >        4       10       13       14       22 </v>
    <v type="int" >        4       13       14       22       26 </v>
    <v type="int" >        4        9       13       21       22 </v>
    <v type="int" >        4       13       21       22       25 </v>
    <v type="int" >        4       13       22       25       26 </v>
    <v type="int" >        4       10       13       14       25 </v>
    <v type="int" >        4        9       10       13       25 </v>
    <v type="int" >        4        9       10       21       25 </v>
    <v type="int" >        4       10       14       25       26 </v>
    <v type="int" >        4       10       22       25       26 </v>
    <v type="int" >        4       10       21       22       25 </v>
    <v type="int" >        4       11       14       15       26 </v>
    <v type="int" >        4       10       11       14       26 </v>
    <v type="int" >        4       10       11       22       26 </v>
    <v type="int" >        4       11       15       26       27 </v>
    <v type="int" >        4       11       23       26       27 </v>
    <v type="int" >        4       11       22       23       26 </v>
    <v type="int" >        4       12       15       16       27 </v>
    <v type="int" >        4       11       12       15       27 </v>
    <v type="int" >        4       11       12       23       27 </v>
    <v type="int" >        4       12       16       27       28 </v>
    <v type="int" >        4       12       24       27       28 </v>
    <v type="int" >        4       12       23       24       27 </v>
    <v type="int" >        4       11       15       16       28 </v>
    <v type="int" >        4       11       12       16       28 </v>
    <v type="int" >        4       11       12       24       28 </v>
    <v type="int" >        4       11       15       27       28 </v>
    <v type="int" >        4       11       23       27       28 </v>
    <v type="int" >        4       11       23       24       28 </v>
    <v type="int" >        4       10       14       15       27 </v>
    <v type="int" >        4       10       11       15       27 </v>
    <v type="int" >        4       10       11       23       27 </v>
    <v type="int" >        4       10       14       26       27 </v>
    <v type="int" >        4       10       22       26       27 </v>
    <v type="int" >        4       10       22       23       27 </v>
    <v type="int" >        4        9       13       14       26 </v>
    <v type="int" >        4        9       10       14       26 </v>
    <v type="int" >        4        9       10       22       26 </v>
    <v type="int" >        4        9       13       25       26 </v>
    <v type="int" >        4        9       21       25       26 </v>
    <v type="int" >        4        9       21       22       26 </v>
    <v type="int" >        4        6        9       10       21 </v>
    <v type="int" >        4        5        6        9       21 </v>
    <v type="int" >        4        5        6       17       21 </v>
    <v type="int" >        4        6       10       21       22 </v>
    <v type="int" >        4        6       18       21       22 </v>
    <v type="int" >        4        6       17       18       21 </v>
    <v type="int" >        4        7       10       11       22 </v>
    <v type="int" >        4        6        7       10       22 </v>
    <v type="int" >        4        6        7       18       22 </v>
    <v type="int" >        4        7       11       22       23 </v>
    <v type="int" >        4        7       19       22       23 </v>
    <v type="int" >        4        7       18       19       22 </v>
    <v type="int" >        4        8       11       12       23 </v>
    <v type="int" >        4        7        8       11       23 </v>
    <v type="int" >        4        7        8       19       23 </v>
    <v type="int" >        4        8       12       23       24 </v>
    <v type="int" >        4        8       20       23       24 </v>
    <v type="int" >        4        8       19       20       23 </v>
    <v type="int" >        4        7       11       12       24 </v>
    <v type="int" >        4        7        8       12       24 </v>
    <v type="int" >        4        7        8       20       24 </v>
    <v type="int" >        4        7       11       23       24 </v>
    <v type="int" >        4        7       19       23       24 </v>
    <v type="int" >        4        7       19       20       24 </v>
    <v type="int" >        4        6       10       11       23 </v>
    <v type="int" >        4        6        7       11       23 </v>
    <v type="int" >        4        6        7       19       23 </v>
    <v type="int" >        4        6       10       22       23 </v>
    <v type="int" >        4        6       18       22       23 </v>
    <v type="int" >        4        6       18       19       23 </v>
    <v type="int" >        4        5        9       10       22 </v>
    <v type="int" >        4        5        6       10       22 </v>
    <v type="int" >        4        5        6       18       22 </v>
    <v type="int" >        4        5        9       21       22 </v>
    <v type="int" >        4        5       17       21       22 </v>
    <v type="int" >        4        5       17       18       22 </v>
    <v type="int" >        4        2        5        6       17 </v>
    <v type="int" >        4        1        2        5       17 </v>
    <v type="int" >        4        2        6       17       18 </v>
    <v type="int" >        4        3        6        7       18 </v>
    <v type="int" >        4        2        3        6       18 </v>
    <v type="int" >        4        3        7       18       19 </v>
    <v type="int" >        4        4        7        8       19 </v>
    <v type="int" >        4        3        4        7       19 </v>
    <v type="int" >        4        4        8       19       20 </v>
    <v type="int" >        4        3        7        8       20 </v>
    <v type="int" >        4        3        4        8       20 </v>
    <v type="int" >        4        3        7       19       20 </v>
    <v type="int" >        4        2        6        7       19 </v>
    <v type="int" >        4        2        3        7       19 </v>
    <v type="int" >        4        2        6       18       19 </v>
    <v type="int" >        4        1        5        6       18 </v>
    <v type="int" >        4        1        2        6       18 </v>
    <v type="int" >        4        1        5       17       18 </v>
    <v type="int" >        4       17       18       21       22 </v>
    <v type="int" >        4       17       21       21       22 </v>
    <v type="int" >        4       21       21       22       29 </v>
    <v type="int" >        4       18       21       22       22 </v>
    <v type="int" >        4       21       22       22       30 </v>
    <v type="int" >        4       21       22       29       30 </v>
    <v type="int" >        4       18       19       22       23 </v>
    <v type="int" >        4       18       22       22       23 </v>
    <v type="int" >        4       22       22       23       30 </v>
    <v type="int" >        4       19       22       23       23 </v>
    <v type="int" >        4       22       23       23       31 </v>
    <v type="int" >        4       22       23       30       31 </v>
    <v type="int" >        4       19       20       23       24 </v>
    <v type="int" >        4       19       23       23       24 </v>
    <v type="int" >        4       23       23       24       31 </v>
    <v type="int" >        4       20       23       24       24 </v>
    <v type="int" >        4       23       24       24       32 </v>
    <v type="int" >        4       23       24       31       32 </v>
    <v type="int" >        4       21       22       26       29 </v>
    <v type="int" >        4       21       25       26       29 </v>
    <v type="int" >        4       25       26       29       33 </v>
    <v type="int" >        4       22       26       29       30 </v>
    <v type="int" >        4       26       29       30       34 </v>
    <v type="int" >        4       26       29       33       34 </v>
    <v type="int" >        4       22       23       27       30 </v>
    <v type="int" >        4       22       26       27       30 </v>
    <v type="int" >        4       26       27       30       34 </v>
    <v type="int" >        4       23       27       30       31 </v>
    <v type="int" >        4       27       30       31       35 </v>
    <v type="int" >        4       27       30       34       35 </v>
    <v type="int" >        4       23       24       28       31 </v>
    <v type="int" >        4       23       27       28       31 </v>
    <v type="int" >        4       27       28       31       35 </v>
    <v type="int" >        4       24       28       31       32 </v>
    <v type="int" >        4       28       31       32       36 </v>
    <v type="int" >        4       28       31       35       36 </v>
    <v type="int" >        4       23       24       27       32 </v>
    <v type="int" >        4       24       27       28       32 </v>
    <v type="int" >        4       27       28       32       36 </v>
    <v type="int" >        4       23       27       31       32 </v>
    <v type="int" >        4       27       31       32       35 </v>
    <v type="int" >        4       27       32       35       36 </v>
    <v type="int" >        4       22       23       26       31 </v>
    <v type="int" >        4       23       26       27       31 </v>
    <v type="int" >        4       26       27       31       35 </v>
    <v type="int" >        4       22       26       30       31 </v>
    <v type="int" >        4       26       30       31       34 </v>
    <v type="int" >        4       26       31       34       35 </v>
    <v type="int" >        4       21       22       25       30 </v>
    <v type="int" >        4       22       25       26       30 </v>
    <v type="int" >        4       25       26       30       34 </v>
    <v type="int" >        4       21       25       29       30 </v>
    <v type="int" >        4       25       29       30       33 </v>
    <v type="int" >        4       25       30       33       34 </v>
    <v type="int" >        4       22       25       26       33 </v>
    <v type="int" >        4       21       22       25       33 </v>
    <v type="int" >        4       21       22       29       33 </v>
    <v type="int" >        4       22       26       33       34 </v>
    <v type="int" >        4       22       30       33       34 </v>
    <v type="int" >        4       22       29       30       33 </v>
    <v type="int" >        4       23       26       27       34 </v>
    <v type="int" >        4       22       23       26       34 </v>
    <v type="int" >        4       22       23       30       34 </v>
    <v type="int" >        4       23       27       34       35 </v>
    <v type="int" >        4       23       31       34       35 </v>
    <v type="int" >        4       23       30       31       34 </v>
    <v type="int" >        4       24       27       28       35 </v>
    <v type="int" >        4       23       24       27       35 </v>
    <v type="int" >        4       23       24       31       35 </v>
    <v type="int" >        4       24       28       35       36 </v>
    <v type="int" >        4       24       32       35       36 </v>
    <v type="int" >        4       24       31       32       35 </v>
    <v type="int" >        4       23       27       28       36 </v>
    <v type="int" >        4       23       24       28       36 </v>
    <v type="int" >        4       23       24       32       36 </v>
    <v type="int" >        4       23       27       35       36 </v>
    <v type="int" >        4       23       31       35       36 </v>
    <v type="int" >        4       23       31       32       36 </v>
    <v type="int" >        4       22       26       27       35 </v>
    <v type="int" >        4       22       23       27       35 </v>
    <v type="int" >        4       22       23       31       35 </v>
    <v type="int" >        4       22       26       34       35 </v>
    <v type="int" >        4       22       30       34       35 </v>
    <v type="int" >        4       22       30       31       35 </v>
    <v type="int" >        4       21       25       26       34 </v>
    <v type="int" >        4       21       22       26       34 </v>
    <v type="int" >        4       21       22       30       34 </v>
    <v type="int" >        4       21       25       33       34 </v>
    <v type="int" >        4       21       29       33       34 </v>
    <v type="int" >        4       21       29       30       34 </v>
    <v type="int" >        4       18       21       22       29 </v>
    <v type="int" >        4       17       18       21       29 </v>
    <v type="int" >        4       18       22       29       30 </v>
    <v type="int" >        4       19       22       23       30 </v>
    <v type="int" >        4       18       19       22       30 </v>
    <v type="int" >        4       19       23       30       31 </v>
    <v type="int" >        4       20       23       24       31 </v>
    <v type="int" >        4       19       20       23       31 </v>
    <v type="int" >        4       20       24       31       32 </v>
    <v type="int" >        4       19       23       24       32 </v>
    <v type="int" >        4       19       20       24       32 </v>
    <v type="int" >        4       19       23       31       32 </v>
    <v type="int" >        4       18       22       23       31 </v>
    <v type="int" >        4       18       19       23       31 </v>
    <v type="int" >        4       18       22       30       31 </v>
    <v type="int" >        4       17       21       22       30 </v>
    <v type="int" >        4       17       18       22       30 </v>
    <v type="int" >        4       17       21       29       30 </v>
    <v type="int" >        4       29       30       33       34 </v>
    <v type="int" >        4       29       33       33       34 </v>
    <v type="int" >        4       33       33       34       37 </v>
    <v type="int" >        4       30       33       34       34 </v>
    <v type="int" >        4       33       34       34       38 </v>
    <v type="int" >        4       33       34       37       38 </v>
    <v type="int" >        4       30       31       34       35 </v>
    <v type="int" >        4       30       34       34       35 </v>
    <v type="int" >        4       34       34       35       38 </v>
    <v type="int" >        4       31       34       35       35 </v>
    <v type="int" >        4       34       35       35       39 </v>
    <v type="int" >        4       34       35       38       39 </v>
    <v type="int" >        4       31       32       35       36 </v>
    <v type="int" >        4       31       35       35       36 </v>
    <v type="int" >        4       35       35       36       39 </v>
    <v type="int" >        4       32       35       36       36 </v>
    <v type="int" >        4       35       36       36       40 </v>
    <v type="int" >        4       35       36       39       40 </v>
    <v type="int" >        4       30       33       34       37 </v>
    <v type="int" >        4       29       30       33       37 </v>
    <v type="int" >        4       30       34       37       38 </v>
    <v type="int" >        4       31       34       35       38 </v>
    <v type="int" >        4       30       31       34       38 </v>
    <v type="int" >        4       31       35       38       39 </v>
    <v type="int" >        4       32       35       36       39 </v>
    <v type="int" >        4       31       32       35       39 </v>
    <v type="int" >        4       32       36       39       40 </v>
    <v type="int" >        4       31       35       36       40 </v>
    <v type="int" >        4       31       32       36       40 </v>
    <v type="int" >        4       31       35       39       40 </v>
    <v type="int" >        4       30       34       35       39 </v>
    <v type="int" >        4       30       31       35       39 </v>
    <v type="int" >        4       30       34       38       39 </v>
    <v type="int" >        4       29       33       34       38 </v>
    <v type="int" >        4       29       30       34       38 </v>
    <v type="int" >        4       29       33       37       38 </v>
   </varray>
   <i name="volumeweight">      0.00077160 </i>
  </kpoints>
  <time name="totalsc">   90.62   90.88</time>
 </calculation>
 <calculation>
  <scstep>
   <time name="dav">    7.71    7.75</time>
   <time name="total">    8.81    8.86</time>
   <energy>
    <i name="alphaZ">    134.51671955 </i>
    <i name="ewald">  -5429.80312941 </i>
    <i name="hartreedc">  -2037.32421886 </i>
    <i name="XCdc">     37.47046928 </i>
    <i name="pawpsdc">   7379.26691636 </i>
    <i name="pawaedc">  -7155.89502759 </i>
    <i name="eentropy">      0.00000000 </i>
    <i name="bandstr">   -498.28724585 </i>
    <i name="atom">   7539.55497359 </i>
    <i name="e_fr_energy">    -30.50054294 </i>
    <i name="e_wo_entrp">    -30.50054294 </i>
    <i name="e_0_energy">    -30.50054294 </i>
   </energy>
  </scstep>
  <scstep>
   <time name="dav">    7.70    7.71</time>
   <time name="total">    8.80    8.80</time>
   <energy>
    <i name="e_fr_energy">    -30.17021300 </i>
    <i name="e_wo_entrp">    -30.17021300 </i>
    <i name="e_0_energy">    -30.17021300 </i>
   </energy>
  </scstep>
  <scstep>
   <time name="dav">    7.80    7.80</time>
   <time name="total">    8.89    8.89</time>
   <energy>
    <i name="e_fr_energy">    -30.06121467 </i>
    <i name="e_wo_entrp">    -30.06121467 </i>
    <i name="e_0_energy">    -30.06121467 </i>
   </energy>
  </scstep>
  <scstep>
   <time name="dav">    8.03    8.04</time>
   <time name="total">    9.13    9.13</time>
   <energy>
    <i name="e_fr_energy">    -30.05863302 </i>
    <i name="e_wo_entrp">    -30.05863302 </i>
    <i name="e_0_energy">    -30.05863302 </i>
   </energy>
  </scstep>
  <scstep>
   <time name="dav">    8.06    8.12</time>
   <time name="total">    9.16    9.21</time>
   <energy>
    <i name="e_fr_energy">    -30.05804905 </i>
    <i name="e_wo_entrp">    -30.05804905 </i>
    <i name="e_0_energy">    -30.05804905 </i>
   </energy>
  </scstep>
  <scstep>
   <time name="dav">    8.03    8.03</time>
   <time name="total">    9.12    9.13</time>
   <energy>
    <i name="e_fr_energy">    -30.05810831 </i>
    <i name="e_wo_entrp">    -30.05810831 </i>
    <i name="e_0_energy">    -30.05810831 </i>
   </energy>
  </scstep>
  <scstep>
   <time name="dav">    8.35    8.35</time>
   <time name="total">    9.44    9.45</time>
   <energy>
    <i name="e_fr_energy">    -30.05811353 </i>
    <i name="e_wo_entrp">    -30.05811353 </i>
    <i name="e_0_energy">    -30.05811353 </i>
   </energy>
  </scstep>
  <scstep>
   <time name="dav">    8.09    8.18</time>
   <time name="total">    9.18    9.27</time>
   <energy>
    <i name="e_fr_energy">    -30.05811551 </i>
    <i name="e_wo_entrp">    -30.05811551 </i>
    <i name="e_0_energy">    -30.05811551 </i>
   </energy>
  </scstep>
  <scstep>
   <time name="dav">    6.21    6.21</time>
   <time name="total">    6.51    6.51</time>
   <energy>
    <i name="alphaZ">    134.51671955 </i>
    <i name="ewald">  -5429.80312941 </i>
    <i name="hartreedc">  -2069.55173434 </i>
    <i name="XCdc">     38.56825339 </i>
    <i name="pawpsdc">   7328.34928676 </i>
    <i name="pawaedc">  -7104.61720479 </i>
    <i name="eentropy">      0.00000000 </i>
    <i name="bandstr">   -467.07528020 </i>
    <i name="atom">   7539.55497359 </i>
    <i name="e_fr_energy">    -30.05811546 </i>
    <i name="e_wo_entrp">    -30.05811546 </i>
    <i name="e_0_energy">    -30.05811546 </i>
   </energy>
  </scstep>
  <structure>
   <crystal>
    <varray name="basis" >
     <v>       6.69999645       0.00000000       0.00000000 </v>
     <v>       0.00000000       6.56862397       0.00000000 </v>
     <v>       0.00000000       0.00000000       6.56862397 </v>
    </varray>
    <i name="volume">    289.08354663 </i>
    <varray name="rec_basis" >
     <v>       0.14925381       0.00000000       0.00000000 </v>
     <v>       0.00000000       0.15223889       0.00000000 </v>
     <v>       0.00000000       0.00000000       0.15223889 </v>
    </varray>
   </crystal>
   <varray name="positions" >
    <v>       0.00000000       0.00000000       0.00000000 </v>
    <v>       0.00000000       0.50000000       0.50000000 </v>
    <v>       0.50000000       0.00000000       0.50000000 </v>
    <v>       0.50000000       0.50000000       0.00000000 </v>
    <v>       0.50000000       0.00000000       0.00000000 </v>
    <v>       0.50000000       0.50000000       0.50000000 </v>
    <v>       0.00000000       0.00000000       0.50000000 </v>
    <v>       0.00000000       0.50000000       0.00000000 </v>
   </varray>
  </structure>
  <varray name="forces" >
   <v>      -0.00000000       0.00000000      -0.00000000 </v>
   <v>      -0.00000000       0.00000000      -0.00000000 </v>
   <v>      -0.00000000      -0.00000000      -0.00000000 </v>
   <v>      -0.00000000       0.00000000       0.00000000 </v>
   <v>       0.00000000      -0.00000000       0.00000000 </v>
   <v>       0.00000000      -0.00000000      -0.00000000 </v>
   <v>       0.00000000      -0.00000000       0.00000000 </v>
   <v>      -0.00000000      -0.00000000       0.00000000 </v>
  </varray>
  <varray name="stress" >
   <v>     -18.28616127      -0.00000000       0.00000000 </v>
   <v>       0.00000000      -1.23979578       0.00000000 </v>
   <v>       0.00000000       0.00000000      -1.23979578 </v>
  </varray>
  <energy>
   <i name="e_fr_energy">    -30.05811546 </i>
   <i name="e_wo_entrp">    -30.05811546 </i>
   <i name="e_0_energy">      0.00000000 </i>
  </energy>
  <kpoints>
   <generation param="Gamma">
    <v type="int" name="divisions">       6        6        6 </v>
    <v name="usershift">      0.00000000       0.00000000       0.00000000 </v>
    <v name="genvec1">      0.16666667       0.00000000       0.00000000 </v>
    <v name="genvec2">      0.00000000       0.16666667       0.00000000 </v>
    <v name="genvec3">      0.00000000       0.00000000       0.16666667 </v>
    <v name="shift">      0.00000000       0.00000000       0.00000000 </v>
   </generation>
   <varray name="kpointlist" >
    <v>       0.00000000       0.00000000       0.00000000 </v>
    <v>       0.16666667       0.00000000       0.00000000 </v>
    <v>       0.33333333       0.00000000       0.00000000 </v>
    <v>       0.50000000       0.00000000       0.00000000 </v>
    <v>       0.00000000       0.16666667       0.00000000 </v>
    <v>       0.16666667       0.16666667       0.00000000 </v>
    <v>       0.33333333       0.16666667       0.00000000 </v>
    <v>       0.50000000       0.16666667       0.00000000 </v>
    <v>       0.00000000       0.33333333       0.00000000 </v>
    <v>       0.16666667       0.33333333       0.00000000 </v>
    <v>       0.33333333       0.33333333       0.00000000 </v>
    <v>       0.50000000       0.33333333       0.00000000 </v>
    <v>       0.00000000       0.50000000       0.00000000 </v>
    <v>       0.16666667       0.50000000       0.00000000 </v>
    <v>       0.33333333       0.50000000       0.00000000 </v>
    <v>       0.50000000       0.50000000       0.00000000 </v>
    <v>       0.00000000       0.16666667       0.16666667 </v>
    <v>       0.16666667       0.16666667       0.16666667 </v>
    <v>       0.33333333       0.16666667       0.16666667 </v>
    <v>       0.50000000       0.16666667       0.16666667 </v>
    <v>       0.00000000       0.33333333       0.16666667 </v>
    <v>       0.16666667       0.33333333       0.16666667 </v>
    <v>       0.33333333       0.33333333       0.16666667 </v>
    <v>       0.50000000       0.33333333       0.16666667 </v>
    <v>       0.00000000       0.50000000       0.16666667 </v>
    <v>       0.16666667       0.50000000       0.16666667 </v>
    <v>       0.33333333       0.50000000       0.16666667 </v>
    <v>       0.50000000       0.50000000       0.16666667 </v>
    <v>       0.00000000       0.33333333       0.33333333 </v>
    <v>       0.16666667       0.33333333       0.33333333 </v>
    <v>       0.33333333       0.33333333       0.33333333 </v>
    <v>       0.50000000       0.33333333       0.33333333 </v>
    <v>       0.00000000       0.50000000       0.33333333 </v>
    <v>       0.16666667       0.50000000       0.33333333 </v>
    <v>       0.33333333       0.50000000       0.33333333 </v>
    <v>       0.50000000       0.50000000       0.33333333 </v>
    <v>       0.00000000       0.50000000       0.50000000 </v>
    <v>       0.16666667       0.50000000       0.50000000 </v>
    <v>       0.33333333       0.50000000       0.50000000 </v>
    <v>       0.50000000       0.50000000       0.50000000 </v>
   </varray>
   <varray name="weights" >
    <v>       0.00462963 </v>
    <v>       0.00925926 </v>
    <v>       0.00925926 </v>
    <v>       0.00462963 </v>
    <v>       0.01851852 </v>
    <v>       0.03703704 </v>
    <v>       0.03703704 </v>
    <v>       0.01851852 </v>
    <v>       0.01851852 </v>
    <v>       0.03703704 </v>
    <v>       0.03703704 </v>
    <v>       0.01851852 </v>
    <v>       0.00925926 </v>
    <v>       0.01851852 </v>
    <v>       0.01851852 </v>
    <v>       0.00925926 </v>
    <v>       0.01851852 </v>
    <v>       0.03703704 </v>
    <v>       0.03703704 </v>
    <v>       0.01851852 </v>
    <v>       0.03703704 </v>
    <v>       0.07407407 </v>
    <v>       0.07407407 </v>
    <v>       0.03703704 </v>
    <v>       0.01851852 </v>
    <v>       0.03703704 </v>
    <v>       0.03703704 </v>
    <v>       0.01851852 </v>
    <v>       0.01851852 </v>
    <v>       0.03703704 </v>
    <v>       0.03703704 </v>
    <v>       0.01851852 </v>
    <v>       0.01851852 </v>
    <v>       0.03703704 </v>
    <v>       0.03703704 </v>
    <v>       0.01851852 </v>
    <v>       0.00462963 </v>
    <v>       0.00925926 </v>
    <v>       0.00925926 </v>
    <v>       0.00462963 </v>
   </varray>
   <varray name="tetrahedronlist"  type="int" >
    <v type="int" >        4        1        2        5        6 </v>
    <v type="int" >        4        1        5        5        6 </v>
    <v type="int" >        4        5        5        6       17 </v>
    <v type="int" >        4        2        5        6        6 </v>
    <v type="int" >        4        5        6        6       18 </v>
    <v type="int" >        4        5        6       17       18 </v>
    <v type="int" >        4        2        3        6        7 </v>
    <v type="int" >        4        2        6        6        7 </v>
    <v type="int" >        4        6        6        7       18 </v>
    <v type="int" >        4        3        6        7        7 </v>
    <v type="int" >        4        6        7        7       19 </v>
    <v type="int" >        4        6        7       18       19 </v>
    <v type="int" >        4        3        4        7        8 </v>
    <v type="int" >        4        3        7        7        8 </v>
    <v type="int" >        4        7        7        8       19 </v>
    <v type="int" >        4        4        7        8        8 </v>
    <v type="int" >        4        7        8        8       20 </v>
    <v type="int" >        4        7        8       19       20 </v>
    <v type="int" >        4        5        6       10       17 </v>
    <v type="int" >        4        5        9       10       17 </v>
    <v type="int" >        4        9       10       17       21 </v>
    <v type="int" >        4        6       10       17       18 </v>
    <v type="int" >        4       10       17       18       22 </v>
    <v type="int" >        4       10       17       21       22 </v>
    <v type="int" >        4        6        7       11       18 </v>
    <v type="int" >        4        6       10       11       18 </v>
    <v type="int" >        4       10       11       18       22 </v>
    <v type="int" >        4        7       11       18       19 </v>
    <v type="int" >        4       11       18       19       23 </v>
    <v type="int" >        4       11       18       22       23 </v>
    <v type="int" >        4        7        8       12       19 </v>
    <v type="int" >        4        7       11       12       19 </v>
    <v type="int" >        4       11       12       19       23 </v>
    <v type="int" >        4        8       12       19       20 </v>
    <v type="int" >        4       12       19       20       24 </v>
    <v type="int" >        4       12       19       23       24 </v>
    <v type="int" >        4        7        8       11       20 </v>
    <v type="int" >        4        8       11       12       20 </v>
    <v type="int" >        4       11       12       20       24 </v>
    <v type="int" >        4        7       11       19       20 </v>
    <v type="int" >        4       11       19       20       23 </v>
    <v type="int" >        4       11       20       23       24 </v>
    <v type="int" >        4        6        7       10       19 </v>
    <v type="int" >        4        7       10       11       19 </v>
    <v type="int" >        4       10       11       19       23 </v>
    <v type="int" >        4        6       10       18       19 </v>
    <v type="int" >        4       10       18       19       22 </v>
    <v type="int" >        4       10       19       22       23 </v>
    <v type="int" >        4        5        6        9       18 </v>
    <v type="int" >        4        6        9       10       18 </v>
    <v type="int" >        4        9       10       18       22 </v>
    <v type="int" >        4        5        9       17       18 </v>
    <v type="int" >        4        9       17       18       21 </v>
    <v type="int" >        4        9       18       21       22 </v>
    <v type="int" >        4        9       10       14       21 </v>
    <v type="int" >        4        9       13       14       21 </v>
    <v type="int" >        4       13       14       21       25 </v>
    <v type="int" >        4       10       14       21       22 </v>
    <v type="int" >        4       14       21       22       26 </v>
    <v type="int" >        4       14       21       25       26 </v>
    <v type="int" >        4       10       11       15       22 </v>
    <v type="int" >        4       10       14       15       22 </v>
    <v type="int" >        4       14       15       22       26 </v>
    <v type="int" >        4       11       15       22       23 </v>
    <v type="int" >        4       15       22       23       27 </v>
    <v type="int" >        4       15       22       26       27 </v>
    <v type="int" >        4       11       12       16       23 </v>
    <v type="int" >        4       11       15       16       23 </v>
    <v type="int" >        4       15       16       23       27 </v>
    <v type="int" >        4       12       16       23       24 </v>
    <v type="int" >        4       16       23       24       28 </v>
    <v type="int" >        4       16       23       27       28 </v>
    <v type="int" >        4       11       12       15       24 </v>
    <v type="int" >        4       12       15       16       24 </v>
    <v type="int" >        4       15       16       24       28 </v>
    <v type="int" >        4       11       15       23       24 </v>
    <v type="int" >        4       15       23       24       27 </v>
    <v type="int" >        4       15       24       27       28 </v>
    <v type="int" >        4       10       11       14       23 </v>
    <v type="int" >        4       11       14       15       23 </v>
    <v type="int" >        4       14       15       23       27 </v>
    <v type="int" >        4       10       14       22       23 </v>
    <v type="int" >        4       14       22       23       26 </v>
    <v type="int" >        4       14       23       26       27 </v>
    <v type="int" >        4        9       10       13       22 </v>
    <v type="int" >        4       10       13       14       22 </v>
    <v type="int" >        4       13       14       22       26 </v>
    <v type="int" >        4        9       13       21       22 </v>
    <v type="int" >        4       13       21       22       25 </v>
    <v type="int" >        4       13       22       25       26 </v>
    <v type="int" >        4       10       13       14       25 </v>
    <v type="int" >        4        9       10       13       25 </v>
    <v type="int" >        4        9       10       21       25 </v>
    <v type="int" >        4       10       14       25       26 </v>
    <v type="int" >        4       10       22       25       26 </v>
    <v type="int" >        4       10       21       22       25 </v>
    <v type="int" >        4       11       14       15       26 </v>
    <v type="int" >        4       10       11       14       26 </v>
    <v type="int" >        4       10       11       22       26 </v>
    <v type="int" >        4       11       15       26       27 </v>
    <v type="int" >        4       11       23       26       27 </v>
    <v type="int" >        4       11       22       23       26 </v>
    <v type="int" >        4       12       15       16       27 </v>
    <v type="int" >        4       11       12       15       27 </v>
    <v type="int" >        4       11       12       23       27 </v>
    <v type="int" >        4       12       16       27       28 </v>
    <v type="int" >        4       12       24       27       28 </v>
    <v type="int" >        4       12       23       24       27 </v>
    <v type="int" >        4       11       15       16       28 </v>
    <v type="int" >        4       11       12       16       28 </v>
    <v type="int" >        4       11       12       24       28 </v>
    <v type="int" >        4       11       15       27       28 </v>
    <v type="int" >        4       11       23       27       28 </v>
    <v type="int" >        4       11       23       24       28 </v>
    <v type="int" >        4       10       14       15       27 </v>
    <v type="int" >        4       10       11       15       27 </v>
    <v type="int" >        4       10       11       23       27 </v>
    <v type="int" >        4       10       14       26       27 </v>
    <v type="int" >        4       10       22       26       27 </v>
    <v type="int" >        4       10       22       23       27 </v>
    <v type="int" >        4        9       13       14       26 </v>
    <v type="int" >        4        9       10       14       26 </v>
    <v type="int" >        4        9       10       22       26 </v>
    <v type="int" >        4        9       13       25       26 </v>
    <v type="int" >        4        9       21       25       26 </v>
[...]
      </set>
      <set comment="kpoint 19">
       <r>  -11.6569    1.0000 </r>
       <r>  -11.6568    1.0000 </r>
       <r>  -11.6566    1.0000 </r>
       <r>  -11.6562    1.0000 </r>
       <r>  -11.6552    1.0000 </r>
       <r>  -11.6552    1.0000 </r>
       <r>  -11.6550    1.0000 </r>
       <r>  -11.6546    1.0000 </r>
       <r>  -11.6364    1.0000 </r>
       <r>  -11.6363    1.0000 </r>
       <r>  -11.6362    1.0000 </r>
       <r>  -11.6362    1.0000 </r>
       <r>  -11.6257    1.0000 </r>
       <r>  -11.6257    1.0000 </r>
       <r>  -11.6257    1.0000 </r>
       <r>  -11.6257    1.0000 </r>
       <r>  -11.6256    1.0000 </r>
       <r>  -11.6254    1.0000 </r>
       <r>  -11.6253    1.0000 </r>
       <r>  -11.6253    1.0000 </r>
       <r>   -5.3595    1.0000 </r>
       <r>   -5.3541    1.0000 </r>
       <r>   -5.3535    1.0000 </r>
       <r>   -5.3488    1.0000 </r>
       <r>   -3.2006    1.0000 </r>
       <r>   -3.1963    1.0000 </r>
       <r>   -3.1957    1.0000 </r>
       <r>   -3.1908    1.0000 </r>
       <r>    3.5554    1.0000 </r>
       <r>    3.5616    1.0000 </r>
       <r>    3.5622    1.0000 </r>
       <r>    3.5680    1.0000 </r>
       <r>    4.2156    1.0000 </r>
       <r>    4.2213    1.0000 </r>
       <r>    4.2216    1.0000 </r>
       <r>    4.2264    1.0000 </r>
       <r>    4.7249    1.0000 </r>
       <r>    4.7272    1.0000 </r>
       <r>    4.7322    1.0000 </r>
       <r>    4.7339    1.0000 </r>
       <r>    6.1246    0.0000 </r>
       <r>    6.1264    0.0000 </r>
       <r>    6.1306    0.0000 </r>
       <r>    6.1318    0.0000 </r>
       <r>    6.5020    0.0000 </r>
       <r>    6.5069    0.0000 </r>
       <r>    6.5074    0.0000 </r>
       <r>    6.5127    0.0000 </r>
      </set>
      <set comment="kpoint 20">
       <r>  -11.6561    1.0000 </r>
       <r>  -11.6561    1.0000 </r>
       <r>  -11.6560    1.0000 </r>
       <r>  -11.6560    1.0000 </r>
       <r>  -11.6559    1.0000 </r>
       <r>  -11.6559    1.0000 </r>
       <r>  -11.6555    1.0000 </r>
       <r>  -11.6555    1.0000 </r>
       <r>  -11.6370    1.0000 </r>
       <r>  -11.6368    1.0000 </r>
       <r>  -11.6368    1.0000 </r>
       <r>  -11.6368    1.0000 </r>
       <r>  -11.6249    1.0000 </r>
       <r>  -11.6249    1.0000 </r>
       <r>  -11.6249    1.0000 </r>
       <r>  -11.6249    1.0000 </r>
       <r>  -11.6248    1.0000 </r>
       <r>  -11.6245    1.0000 </r>
       <r>  -11.6245    1.0000 </r>
       <r>  -11.6245    1.0000 </r>
       <r>   -5.3086    1.0000 </r>
       <r>   -5.3078    1.0000 </r>
       <r>   -5.3076    1.0000 </r>
       <r>   -5.3076    1.0000 </r>
       <r>   -3.3354    1.0000 </r>
       <r>   -3.3354    1.0000 </r>
       <r>   -3.3352    1.0000 </r>
       <r>   -3.3345    1.0000 </r>
       <r>    4.2673    1.0000 </r>
       <r>    4.2686    1.0000 </r>
       <r>    4.2686    1.0000 </r>
       <r>    4.2689    1.0000 </r>
       <r>    4.2689    1.0000 </r>
       <r>    4.2689    1.0000 </r>
       <r>    4.2690    1.0000 </r>
       <r>    4.2691    1.0000 </r>
       <r>    4.9985    1.0000 </r>
       <r>    4.9985    1.0000 </r>
       <r>    4.9990    1.0000 </r>
       <r>    4.9991    1.0000 </r>
       <r>    5.8305    0.0000 </r>
       <r>    5.8308    0.0000 </r>
       <r>    5.8308    0.0000 </r>
       <r>    5.8312    0.0000 </r>
       <r>    6.3933    0.0000 </r>
       <r>    6.3933    0.0000 </r>
       <r>    6.3935    0.0000 </r>
       <r>    6.3939    0.0000 </r>
      </set>
     </set>
    </set>
   </array>
  </eigenvalues>
  <separator name="orbital magnetization" >
   <v name="MAGDIPOLOUT">      0.00000000      0.00000000      0.00000000</v>
  </separator>
  <dos>
   <i name="efermi">      5.03621055 </i>
   <total>
    <array>
     <dimension dim="1">gridpoints</dimension>
     <dimension dim="2">spin</dimension>
     <field>energy</field>
     <field>total</field>
     <field>integrated</field>
     <set>
      <set comment="spin 1">
       <r>   -13.6916     0.0000     0.0000 </r>
       <r>   -13.6049     0.0000     0.0000 </r>
       <r>   -13.5182     0.0000     0.0000 </r>
       <r>   -13.4316     0.0000     0.0000 </r>
       <r>   -13.3449     0.0000     0.0000 </r>
       <r>   -13.2583     0.0000     0.0000 </r>
       <r>   -13.1716     0.0000     0.0000 </r>
       <r>   -13.0850     0.0000     0.0000 </r>
       <r>   -12.9983     0.0000     0.0000 </r>
       <r>   -12.9117     0.0000     0.0000 </r>
       <r>   -12.8250     0.0000     0.0000 </r>
       <r>   -12.7384     0.0000     0.0000 </r>
       <r>   -12.6517     0.0000     0.0000 </r>
       <r>   -12.5651     0.0000     0.0000 </r>
       <r>   -12.4784     0.0000     0.0000 </r>
       <r>   -12.3918     0.0000     0.0000 </r>
       <r>   -12.3051     0.0000     0.0000 </r>
       <r>   -12.2185     0.0000     0.0000 </r>
       <r>   -12.1318     0.0000     0.0000 </r>
       <r>   -12.0452     0.0000     0.0000 </r>
       <r>   -11.9585     0.0000     0.0000 </r>
       <r>   -11.8719     0.0000     0.0000 </r>
       <r>   -11.7852     0.0000     0.0000 </r>
       <r>   -11.6985     0.0000     0.0000 </r>
       <r>   -11.6119     0.0000    40.0000 </r>
       <r>   -11.5252     0.0000    40.0000 </r>
       <r>   -11.4386     0.0000    40.0000 </r>
       <r>   -11.3519     0.0000    40.0000 </r>
       <r>   -11.2653     0.0000    40.0000 </r>
       <r>   -11.1786     0.0000    40.0000 </r>
       <r>   -11.0920     0.0000    40.0000 </r>
       <r>   -11.0053     0.0000    40.0000 </r>
       <r>   -10.9187     0.0000    40.0000 </r>
       <r>   -10.8320     0.0000    40.0000 </r>
       <r>   -10.7454     0.0000    40.0000 </r>
       <r>   -10.6587     0.0000    40.0000 </r>
       <r>   -10.5721     0.0000    40.0000 </r>
       <r>   -10.4854     0.0000    40.0000 </r>
       <r>   -10.3988     0.0000    40.0000 </r>
       <r>   -10.3121     0.0000    40.0000 </r>
       <r>   -10.2255     0.0000    40.0000 </r>
       <r>   -10.1388     0.0000    40.0000 </r>
       <r>   -10.0522     0.0000    40.0000 </r>
       <r>    -9.9655     0.0000    40.0000 </r>
       <r>    -9.8788     0.0000    40.0000 </r>
       <r>    -9.7922     0.0000    40.0000 </r>
       <r>    -9.7055     0.0000    40.0000 </r>
       <r>    -9.6189     0.0000    40.0000 </r>
       <r>    -9.5322     0.0000    40.0000 </r>
       <r>    -9.4456     0.0000    40.0000 </r>
       <r>    -9.3589     0.0000    40.0000 </r>
       <r>    -9.2723     0.0000    40.0000 </r>
       <r>    -9.1856     0.0000    40.0000 </r>
       <r>    -9.0990     0.0000    40.0000 </r>
       <r>    -9.0123     0.0000    40.0000 </r>
       <r>    -8.9257     0.0000    40.0000 </r>
       <r>    -8.8390     0.0000    40.0000 </r>
       <r>    -8.7524     0.0000    40.0000 </r>
       <r>    -8.6657     0.0000    40.0000 </r>
       <r>    -8.5791     0.0000    40.0000 </r>
       <r>    -8.4924     0.0000    40.0000 </r>
       <r>    -8.4058     0.0000    40.0000 </r>
       <r>    -8.3191     0.0000    40.0000 </r>
       <r>    -8.2324     0.0000    40.0000 </r>
       <r>    -8.1458     0.0000    40.0000 </r>
       <r>    -8.0591     0.0000    40.0000 </r>
       <r>    -7.9725     0.0000    40.0000 </r>
       <r>    -7.8858     0.0000    40.0000 </r>
       <r>    -7.7992     0.0000    40.0000 </r>
       <r>    -7.7125     0.0000    40.0000 </r>
       <r>    -7.6259     0.0000    40.0000 </r>
       <r>    -7.5392     0.0000    40.0000 </r>
       <r>    -7.4526     0.0000    40.0000 </r>
       <r>    -7.3659     0.0000    40.0000 </r>
       <r>    -7.2793     0.0000    40.0000 </r>
       <r>    -7.1926     0.0000    40.0000 </r>
       <r>    -7.1060     0.0000    40.0000 </r>
       <r>    -7.0193     0.0000    40.0000 </r>
       <r>    -6.9327     0.0000    40.0000 </r>
       <r>    -6.8460     0.0000    40.0000 </r>
       <r>    -6.7594     0.0000    40.0000 </r>
       <r>    -6.6727     0.0000    40.0000 </r>
       <r>    -6.5861     0.0901    40.0009 </r>
       <r>    -6.4994     0.9337    40.0452 </r>
       <r>    -6.4127     1.1467    40.1356 </r>
       <r>    -6.3261     1.5949    40.2536 </r>
       <r>    -6.2394     1.8553    40.4060 </r>
       <r>    -6.1528     2.1236    40.5774 </r>
       <r>    -6.0661     2.4280    40.7745 </r>
       <r>    -5.9795     2.7636    40.9993 </r>
       <r>    -5.8928     3.0154    41.2481 </r>
       <r>    -5.8062     3.3813    41.5256 </r>
       <r>    -5.7195     3.9744    41.8362 </r>
       <r>    -5.6329     4.9103    42.2329 </r>
       <r>    -5.5462     5.2717    42.6744 </r>
       <r>    -5.4596     6.0546    43.1813 </r>
       <r>    -5.3729     5.7910    43.6879 </r>
       <r>    -5.2863    10.1321    44.3546 </r>
       <r>    -5.1996    10.5941    45.3514 </r>
       <r>    -5.1130    15.9222    46.4575 </r>
       <r>    -5.0263    10.5303    47.7429 </r>
       <r>    -4.9397     0.0000    48.0000 </r>
       <r>    -4.8530     0.0000    48.0000 </r>
       <r>    -4.7663     0.0000    48.0000 </r>
       <r>    -4.6797     0.0000    48.0000 </r>
       <r>    -4.5930     0.0000    48.0000 </r>
       <r>    -4.5064     0.0000    48.0000 </r>
       <r>    -4.4197     0.0000    48.0000 </r>
       <r>    -4.3331     0.0000    48.0000 </r>
       <r>    -4.2464     0.0000    48.0000 </r>
       <r>    -4.1598     0.0000    48.0000 </r>
       <r>    -4.0731     0.0000    48.0000 </r>
       <r>    -3.9865     0.0000    48.0000 </r>
       <r>    -3.8998     0.0000    48.0000 </r>
       <r>    -3.8132     0.0000    48.0000 </r>
       <r>    -3.7265     0.0000    48.0000 </r>
       <r>    -3.6399     0.0000    48.0000 </r>
       <r>    -3.5532     0.0000    48.0000 </r>
       <r>    -3.4666     0.0000    48.0000 </r>
       <r>    -3.3799     0.0000    48.0000 </r>
       <r>    -3.2933     0.1796    48.0025 </r>
       <r>    -3.2066     4.3544    48.1127 </r>
       <r>    -3.1200     3.5716    48.3735 </r>
       <r>    -3.0333     6.6920    48.7940 </r>
       <r>    -2.9466    10.9068    49.5584 </r>
       <r>    -2.8600    11.2047    50.5239 </r>
       <r>    -2.7733     8.5243    51.4196 </r>
       <r>    -2.6867     6.5046    52.0744 </r>
       <r>    -2.6000     5.8890    52.5951 </r>
       <r>    -2.5134     5.6991    53.0972 </r>
       <r>    -2.4267     5.4860    53.5812 </r>
       <r>    -2.3401     4.9269    54.0558 </r>
       <r>    -2.2534     3.7166    54.4303 </r>
       <r>    -2.1668     2.5776    54.6985 </r>
       <r>    -2.0801     2.1353    54.9007 </r>
       <r>    -1.9935     1.8073    55.0713 </r>
       <r>    -1.9068     1.5581    55.2166 </r>
       <r>    -1.8202     1.3737    55.3432 </r>
       <r>    -1.7335     1.2170    55.4554 </r>
       <r>    -1.6469     1.0670    55.5543 </r>
       <r>    -1.5602     0.9278    55.6406 </r>
       <r>    -1.4736     0.8035    55.7156 </r>
       <r>    -1.3869     0.6893    55.7802 </r>
       <r>    -1.3003     0.5849    55.8353 </r>
       <r>    -1.2136     0.4976    55.8821 </r>
       <r>    -1.1269     0.4296    55.9221 </r>
       <r>    -1.0403     0.3476    55.9561 </r>
       <r>    -0.9536     0.2281    55.9813 </r>
       <r>    -0.8670     0.0958    55.9950 </r>
       <r>    -0.7803     0.0190    55.9996 </r>
       <r>    -0.6937     0.0000    56.0000 </r>
       <r>    -0.6070     0.0000    56.0000 </r>
       <r>    -0.5204     0.0000    56.0000 </r>
       <r>    -0.4337     0.0000    56.0000 </r>
       <r>    -0.3471     0.0000    56.0000 </r>
       <r>    -0.2604     0.0000    56.0000 </r>
       <r>    -0.1738     0.0000    56.0000 </r>
       <r>    -0.0871     0.0000    56.0000 </r>
       <r>    -0.0005     0.0000    56.0000 </r>
       <r>     0.0862     0.0000    56.0000 </r>
       <r>     0.1728     0.0000    56.0000 </r>
       <r>     0.2595     0.0000    56.0000 </r>
       <r>     0.3461     0.0000    56.0000 </r>
       <r>     0.4328     0.0000    56.0000 </r>
       <r>     0.5195     0.0000    56.0000 </r>
       <r>     0.6061     0.0000    56.0000 </r>
       <r>     0.6928     0.0000    56.0000 </r>
       <r>     0.7794     0.0000    56.0000 </r>
       <r>     0.8661     0.0000    56.0000 </r>
       <r>     0.9527     0.3501    56.0077 </r>
       <r>     1.0394     0.7697    56.0666 </r>
       <r>     1.1260     1.0264    56.1409 </r>
       <r>     1.2127     1.4466    56.2475 </r>
       <r>     1.2993     1.8384    56.3899 </r>
       <r>     1.3860     2.6324    56.5922 </r>
       <r>     1.4726     2.9236    56.8295 </r>
       <r>     1.5593     3.4475    57.1052 </r>
       <r>     1.6459     4.0892    57.4530 </r>
       <r>     1.7326     3.6158    57.7711 </r>
       <r>     1.8192     3.7097    58.0886 </r>
       <r>     1.9059     3.8388    58.4143 </r>
       <r>     1.9925     4.6518    58.7663 </r>
       <r>     2.0792     4.5172    59.1751 </r>
       <r>     2.1658     4.5982    59.5698 </r>
       <r>     2.2525     4.6616    59.9711 </r>
       <r>     2.3392     4.9681    60.3776 </r>
       <r>     2.4258     8.4442    61.0308 </r>
       <r>     2.5125     7.7999    61.7226 </r>
       <r>     2.5991     8.2243    62.4178 </r>
       <r>     2.6858     9.3937    63.1842 </r>
       <r>     2.7724     7.7629    63.9384 </r>
       <r>     2.8591     7.5130    64.5937 </r>
       <r>     2.9457     9.1352    65.3224 </r>
       <r>     3.0324     8.6719    66.0744 </r>
       <r>     3.1190     7.8248    66.7866 </r>
       <r>     3.2057     7.5765    67.4532 </r>
       <r>     3.2923     7.1993    68.0902 </r>
       <r>     3.3790     7.8421    68.7344 </r>
       <r>     3.4656     6.6502    69.3631 </r>
       <r>     3.5523     5.8864    69.9142 </r>
       <r>     3.6389     5.8457    70.4194 </r>
       <r>     3.7256     7.0176    70.9792 </r>
       <r>     3.8122    10.8735    71.7238 </r>
       <r>     3.8989    13.5817    72.8300 </r>
       <r>     3.9855    11.0141    73.9138 </r>
       <r>     4.0722     7.4388    74.6784 </r>
       <r>     4.1589     6.0605    75.2481 </r>
       <r>     4.2455     5.6891    75.8054 </r>
       <r>     4.3322     5.9474    76.3024 </r>
       <r>     4.4188     6.9859    76.8588 </r>
       <r>     4.5055     6.8898    77.5608 </r>
       <r>     4.5921     8.1506    78.2424 </r>
       <r>     4.6788     9.9430    79.0696 </r>
       <r>     4.7654     2.5685    79.9115 </r>
       <r>     4.8521     0.2120    79.9896 </r>
       <r>     4.9387     0.0356    79.9993 </r>
       <r>     5.0254     0.0000    80.0000 </r>
       <r>     5.1120     0.0000    80.0000 </r>
       <r>     5.1987     0.0000    80.0000 </r>
       <r>     5.2853     0.0000    80.0000 </r>
       <r>     5.3720     0.0000    80.0000 </r>
       <r>     5.4586     0.0000    80.0000 </r>
       <r>     5.5453     0.0000    80.0000 </r>
       <r>     5.6319     0.0000    80.0000 </r>
       <r>     5.7186     0.0000    80.0000 </r>
       <r>     5.8053     0.0000    80.0000 </r>
       <r>     5.8919     0.0239    80.0005 </r>
       <r>     5.9786     0.1396    80.0069 </r>
       <r>     6.0652     0.3513    80.0275 </r>
       <r>     6.1519     0.7656    80.0720 </r>
       <r>     6.2385     1.3070    80.1635 </r>
       <r>     6.3252     1.7854    80.2950 </r>
       <r>     6.4118     2.7200    80.4865 </r>
       <r>     6.4985     5.7578    80.8009 </r>
       <r>     6.5851    10.6240    81.5273 </r>
       <r>     6.6718     8.9572    82.3675 </r>
       <r>     6.7584     6.8979    83.0946 </r>
       <r>     6.8451     5.5110    83.5966 </r>
       <r>     6.9317     5.5821    84.0744 </r>
       <r>     7.0184     5.9579    84.5745 </r>
       <r>     7.1050     6.6983    85.1088 </r>
       <r>     7.1917     5.9825    85.6723 </r>
       <r>     7.2783     5.5864    86.1698 </r>
       <r>     7.3650     5.5214    86.6496 </r>
       <r>     7.4516     5.5240    87.1292 </r>
       <r>     7.5383     5.3491    87.6017 </r>
       <r>     7.6250     5.2245    88.0558 </r>
       <r>     7.7116     4.9683    88.4989 </r>
       <r>     7.7983     4.4616    88.9106 </r>
       <r>     7.8849     4.3042    89.2900 </r>
       <r>     7.9716     4.7322    89.6721 </r>
       <r>     8.0582     4.1005    90.0516 </r>
       <r>     8.1449     4.2280    90.4107 </r>
       <r>     8.2315     4.4814    90.7890 </r>
       <r>     8.3182     4.5378    91.1810 </r>
       <r>     8.4048     4.5766    91.5757 </r>
       <r>     8.4915     4.8595    91.9798 </r>
       <r>     8.5781     4.6713    92.3949 </r>
       <r>     8.6648     4.7056    92.7983 </r>
       <r>     8.7514     4.8930    93.2142 </r>
       <r>     8.8381     6.6881    93.7103 </r>
       <r>     8.9247     4.9809    94.1513 </r>
       <r>     9.0114     5.4082    94.5967 </r>
       <r>     9.0980     4.5942    95.0572 </r>
       <r>     9.1847     3.7682    95.4304 </r>
       <r>     9.2713     2.8162    95.7233 </r>
       <r>     9.3580     1.2301    95.8987 </r>
       <r>     9.4447     0.1800    95.9485 </r>
       <r>     9.5313     0.1455    95.9625 </r>
       <r>     9.6180     0.1147    95.9738 </r>
       <r>     9.7046     0.0875    95.9825 </r>
       <r>     9.7913     0.0641    95.9891 </r>
       <r>     9.8779     0.0442    95.9937 </r>
       <r>     9.9646     0.0281    95.9968 </r>
       <r>    10.0512     0.0156    95.9987 </r>
       <r>    10.1379     0.0067    95.9996 </r>
       <r>    10.2245     0.0015    96.0000 </r>
       <r>    10.3112     0.0000    96.0000 </r>
       <r>    10.3978     0.0000    96.0000 </r>
       <r>    10.4845     0.0000    96.0000 </r>
       <r>    10.5711     0.0000    96.0000 </r>
       <r>    10.6578     0.0000    96.0000 </r>
       <r>    10.7444     0.0000    96.0000 </r>
       <r>    10.8311     0.0000    96.0000 </r>
       <r>    10.9177     0.0000    96.0000 </r>
       <r>    11.0044     0.0000    96.0000 </r>
       <r>    11.0911     0.0000    96.0000 </r>
       <r>    11.1777     0.0000    96.0000 </r>
       <r>    11.2644     0.0000    96.0000 </r>
       <r>    11.3510     0.0000    96.0000 </r>
       <r>    11.4377     0.0000    96.0000 </r>
       <r>    11.5243     0.0000    96.0000 </r>
       <r>    11.6110     0.0000    96.0000 </r>
       <r>    11.6976     0.0000    96.0000 </r>
       <r>    11.7843     0.0000    96.0000 </r>
       <r>    11.8709     0.0000    96.0000 </r>
       <r>    11.9576     0.0000    96.0000 </r>
       <r>    12.0442     0.0000    96.0000 </r>
       <r>    12.1309     0.0000    96.0000 </r>
       <r>    12.2175     0.0000    96.0000 </r>
       <r>    12.3042     0.0000    96.0000 </r>
      </set>
     </set>
    </array>
   </total>
  </dos>
 </calculation>
 <structure name="finalpos" >
  <crystal>
   <varray name="basis" >
    <v>       6.56862397       0.00000000       0.00000000 </v>
    <v>       0.00000000       6.56862397       0.00000000 </v>
    <v>       0.00000000       0.00000000       6.56862397 </v>
   </varray>
   <i name="volume">    283.41524179 </i>
   <varray name="rec_basis" >
    <v>       0.15223889       0.00000000       0.00000000 </v>
    <v>       0.00000000       0.15223889       0.00000000 </v>
    <v>       0.00000000       0.00000000       0.15223889 </v>
   </varray>
  </crystal>
  <varray name="positions" >
   <v>       0.00000000       0.00000000       0.00000000 </v>
   <v>       0.00000000       0.50000000       0.50000000 </v>
   <v>       0.50000000       0.00000000       0.50000000 </v>
   <v>       0.50000000       0.50000000       0.00000000 </v>
   <v>       0.49695522       0.00000000       0.00000000 </v>
   <v>       0.50000000       0.50000000       0.50000000 </v>
   <v>       0.00000000       0.00000000       0.50000000 </v>
   <v>       0.00000000       0.50000000       0.00000000 </v>
  </varray>
 </structure>
</modeling>
