 vasp.5.4.4.18Apr17-6-g9f103f2a35 (build Mar 20 2018 18:01:20) complex           
 executed on             LinuxGNU date 2020.07.14  12:39:19
 running on    8 total cores
 distrk:  each k-point on    8 cores,    1 groups
 distr:  one band on NCORES_PER_BAND=   2 cores,    4 groups


--------------------------------------------------------------------------------------------------------


 INCAR:
 POTCAR:    PAW_PBE Sn_d 06Sep2000                
 POTCAR:    PAW_PBE Se 06Sep2000                  
 POTCAR:    PAW_PBE Sn_d 06Sep2000                
   VRHFIN =Sn: s2p2                                                             
   LEXCH  = PE                                                                  
   EATOM  =  1893.1092 eV,  139.1396 Ry                                         
                                                                                
   TITEL  = PAW_PBE Sn_d 06Sep2000                                              
   LULTRA =        F    use ultrasoft PP ?                                      
   IUNSCR =        1    unscreen: 0-lin 1-nonlin 2-no                           
   RPACOR =    2.300    partial core radius                                     
   POMASS =  118.710; ZVAL   =   14.000    mass and valenz                      
   RCORE  =    2.500    outmost cutoff radius                                   
   RWIGS  =    2.960; RWIGS  =    1.566    wigner-seitz radius (au A)           
   ENMAX  =  241.083; ENMIN  =  180.812 eV                                      
   ICORE  =        3    local potential                                         
   LCOR   =        T    correct aug charges                                     
   LPAW   =        T    paw PP                                                  
   EAUG   =  439.825                                                            
   DEXC   =    0.000                                                            
   RMAX   =    2.560    core radius for proj-oper                               
   RAUG   =    1.300    factor for augmentation sphere                          
   RDEP   =    2.659    radius for radial grids                                 
   RDEPT  =    2.046    core radius for aug-charge                              
                                                                                
   Atomic configuration                                                         
   12 entries                                                                   
     n  l   j            E        occ.                                          
     1  0  0.50    -29007.2859   2.0000                                         
     2  0  0.50     -4378.8056   2.0000                                         
     2  1  1.50     -3930.4293   6.0000                                         
     3  0  0.50      -845.0264   2.0000                                         
     3  1  1.50      -698.5725   6.0000                                         
     3  2  2.50      -473.2839  10.0000                                         
     4  0  0.50      -133.9036   2.0000                                         
     4  1  1.50       -89.6752   6.0000                                         
     4  2  2.50       -25.8375  10.0000                                         
     5  0  0.50       -10.5484   2.0000                                         
     5  1  0.50        -3.6940   2.0000                                         
     4  3  2.50        -2.7416   0.0000                                         
   Description                                                                  
     l       E           TYP  RCUT    TYP  RCUT                                 
     2    -25.8374624     23  2.500                                             
     2     -5.4423304     23  2.500                                             
     0    -10.5483727     23  2.500                                             
     0     13.6058260     23  2.500                                             
     1     -3.6939829     23  2.500                                             
     1      1.9821976     23  2.500                                             
     3     -1.3605826      7  2.500                                             
  local pseudopotential read in
  partial core-charges read in
  partial kinetic energy density read in
  atomic valenz-charges read in
  non local Contribution for L=           2  read in
    real space projection operators read in
  non local Contribution for L=           2  read in
    real space projection operators read in
  non local Contribution for L=           0  read in
    real space projection operators read in
  non local Contribution for L=           0  read in
    real space projection operators read in
  non local Contribution for L=           1  read in
    real space projection operators read in
  non local Contribution for L=           1  read in
    real space projection operators read in
    PAW grid and wavefunctions read in

   number of l-projection  operators is LMAX  =           6
   number of lm-projection operators is LMMAX =          18

 POTCAR:    PAW_PBE Se 06Sep2000                  
   VRHFIN =Se: s2p4                                                             
   LEXCH  = PE                                                                  
   EATOM  =   257.1286 eV,   18.8984 Ry                                         
                                                                                
   TITEL  = PAW_PBE Se 06Sep2000                                                
   LULTRA =        F    use ultrasoft PP ?                                      
   IUNSCR =        1    unscreen: 0-lin 1-nonlin 2-no                           
   RPACOR =    1.900    partial core radius                                     
   POMASS =   78.960; ZVAL   =    6.000    mass and valenz                      
   RCORE  =    2.100    outmost cutoff radius                                   
   RWIGS  =    2.200; RWIGS  =    1.164    wigner-seitz radius (au A)           
   ENMAX  =  211.555; ENMIN  =  158.666 eV                                      
   ICORE  =        3    local potential                                         
   LCOR   =        T    correct aug charges                                     
   LPAW   =        T    paw PP                                                  
   EAUG   =  446.842                                                            
   DEXC   =    0.000                                                            
   RMAX   =    2.147    core radius for proj-oper                               
   RAUG   =    1.300    factor for augmentation sphere                          
   RDEP   =    2.177    radius for radial grids                                 
   RDEPT  =    1.928    core radius for aug-charge                              
                                                                                
   Atomic configuration                                                         
   10 entries                                                                   
     n  l   j            E        occ.                                          
     1  0  0.50    -12503.4787   2.0000                                         
     2  0  0.50     -1606.9547   2.0000                                         
     2  1  1.50     -1413.3140   6.0000                                         
     3  0  0.50      -213.4885   2.0000                                         
     3  1  1.50      -152.9538   6.0000                                         
     3  2  2.50       -53.1221  10.0000                                         
     4  0  0.50       -17.2865   2.0000                                         
     4  1  0.50        -6.5110   4.0000                                         
     4  2  2.50        -6.8029   0.0000                                         
     4  3  2.50        -6.8029   0.0000                                         
   Description                                                                  
     l       E           TYP  RCUT    TYP  RCUT                                 
     0    -17.2865377     23  2.100                                             
     0    -15.3094411     23  2.100                                             
     1     -6.5110275     23  2.100                                             
     1     -0.0695192     23  2.100                                             
     2     -6.8029130     23  2.100                                             
     3     -1.3605826      7  2.100                                             
  local pseudopotential read in
  partial core-charges read in
  partial kinetic energy density read in
  atomic valenz-charges read in
  non local Contribution for L=           0  read in
    real space projection operators read in
  non local Contribution for L=           0  read in
    real space projection operators read in
  non local Contribution for L=           1  read in
    real space projection operators read in
  non local Contribution for L=           1  read in
    real space projection operators read in
  non local Contribution for L=           2  read in
    real space projection operators read in
    PAW grid and wavefunctions read in

   number of l-projection  operators is LMAX  =           5
   number of lm-projection operators is LMMAX =          13

  PAW_PBE Sn_d 06Sep2000                :
 energy of atom  1       EATOM=-1893.1092
 kinetic energy error for atom=    0.0010 (will be added to EATOM!!)
  PAW_PBE Se 06Sep2000                  :
 energy of atom  2       EATOM= -257.1286
 kinetic energy error for atom=    0.0006 (will be added to EATOM!!)


 POSCAR: Sn2 Se2                                 
  positions in direct lattice
  No initial velocities read in
 exchange correlation table for  LEXCH =        8
   RHO(1)=    0.500       N(1)  =     2000
   RHO(2)=  100.500       N(2)  =     4000



--------------------------------------------------------------------------------------------------------


 ion  position               nearest neighbor table
   1  0.375  0.625  0.750-   3 2.74   4 3.02   4 3.02   4 3.02   4 3.02   2 3.64   2 3.64
   2  0.625  0.375  0.250-   4 2.74   3 3.02   3 3.02   3 3.02   3 3.02   1 3.64   1 3.64
   3  0.143  0.857  0.750-   1 2.74   2 3.02   2 3.02   2 3.02   2 3.02
   4  0.857  0.143  0.250-   2 2.74   1 3.02   1 3.02   1 3.02   1 3.02

  LATTYP: Found a base centered orthorhombic cell.
 ALAT       =     4.2710480100
 B/A-ratio  =     2.7666134242
 C/A-ratio  =     0.9944615397
  
  Lattice vectors:
  
 A1 = (   2.1355240050,  -5.9081693800,  -0.0000000000)
 A2 = (   2.1355240050,   5.9081693800,   0.0000000000)
 A3 = (   0.0000000000,   0.0000000000,   4.2473929800)


Analysis of symmetry for initial positions (statically):
=====================================================================
 Subroutine PRICEL returns:
 Original cell was already a primitive cell.
 

 Routine SETGRP: Setting up the symmetry group for a 
 base centered orthorhombic supercell.


 Subroutine GETGRP returns: Found  8 space group operations
 (whereof  4 operations were pure point group operations)
 out of a pool of  8 trial point group operations.


The static configuration has the point symmetry C_2h.
 The point group associated with its full space group is D_2h.


Analysis of symmetry for dynamics (positions and initial velocities):
=====================================================================
 Subroutine PRICEL returns:
 Original cell was already a primitive cell.
 

 Routine SETGRP: Setting up the symmetry group for a 
 base centered orthorhombic supercell.


 Subroutine GETGRP returns: Found  8 space group operations
 (whereof  4 operations were pure point group operations)
 out of a pool of  8 trial point group operations.


The dynamic configuration has the point symmetry C_2h.
 The point group associated with its full space group is D_2h.


 Subroutine INISYM returns: Found  8 space group operations
 (whereof  4 operations are pure point group operations),
 and found     1 'primitive' translations



 KPOINTS: Non SCF run along symmetry lines        
  k-points in reciprocal lattice
Space group operators:
 irot       det(A)        alpha          n_x          n_y          n_z        tau_x        tau_y        tau_z
    1     1.000000     0.000000     1.000000     0.000000     0.000000     0.000000     0.000000     0.000000
    2    -1.000000     0.000000     1.000000     0.000000     0.000000     0.000000     0.000000     0.000000
    3     1.000000   180.000000     1.000000    -0.000000     0.000000     0.000000     0.000000     0.000000
    4    -1.000000   180.000000     1.000000    -0.000000     0.000000     0.000000     0.000000     0.000000
    5     1.000000   180.000000    -0.000000    -0.000000     1.000000     0.000000     0.000000     0.500000
    6    -1.000000   180.000000    -0.000000    -0.000000     1.000000     0.000000     0.000000     0.500000
    7     1.000000   180.000000     0.000000     1.000000     0.000000     0.000000     0.000000     0.500000
    8    -1.000000   180.000000     0.000000     1.000000     0.000000     0.000000     0.000000     0.500000


--------------------------------------------------------------------------------------------------------




 Dimension of arrays:
   k-points           NKPTS =    392   k-points in BZ     NKDIM =    392   number of bands    NBANDS=     48
   number of dos      NEDOS =    301   number of ions     NIONS =      4
   non local maximal  LDIM  =      6   non local SUM 2l+1 LMDIM =     18
   total plane-waves  NPLWV =  90000
   max r-space proj   IRMAX =      1   max aug-charges    IRDMAX= 300164
   dimension x,y,z NGX =    50 NGY =   50 NGZ =   36
   dimension x,y,z NGXF=   100 NGYF=  100 NGZF=   72
   support grid    NGXF=   200 NGYF=  200 NGZF=  144
   ions per type =               2   2
   NGX,Y,Z   is equivalent  to a cutoff of  13.23, 13.23, 14.09 a.u.
   NGXF,Y,Z  is equivalent  to a cutoff of  26.46, 26.46, 28.18 a.u.

 SYSTEM =  SnSe                                    
 POSCAR =  Sn2 Se2                                 

 Startparameter for this run:
   NWRITE =      2    write-flag & timer
   PREC   = accura    normal or accurate (medium, high low for compatibility)
   ISTART =      1    job   : 0-new  1-cont  2-samecut
   ICHARG =     11    charge: 1-file 2-atom 10-const
   ISPIN  =      1    spin polarized calculation?
   LNONCOLLINEAR =      F non collinear calculations
   LSORBIT =      F    spin-orbit coupling
   INIWAV =      1    electr: 0-lowe 1-rand  2-diag
   LASPH  =      F    aspherical Exc in radial PAW
   METAGGA=      F    non-selfconsistent MetaGGA calc.

 Electronic Relaxation 1
   ENCUT  =  600.0 eV  44.10 Ry    6.64 a.u.  12.55 12.55  8.48*2*pi/ulx,y,z
   ENINI  =  600.0     initial cutoff
   ENAUG  =  446.8 eV  augmentation charge cutoff
   NELM   =     60;   NELMIN=  2; NELMDL=  0     # of ELM steps 
   EDIFF  = 0.1E-06   stopping-criterion for ELM
   LREAL  =      F    real-space projection
   NLSPLINE    = F    spline interpolate recip. space projectors
   LCOMPAT=      F    compatible to vasp.4.4
   GGA_COMPAT  = T    GGA compatible to vasp.4.4-vasp.4.6
   LMAXPAW     = -100 max onsite density
   LMAXMIX     =    4 max onsite mixed and CHGCAR
   VOSKOWN=      0    Vosko Wilk Nusair interpolation
   ROPT   =    0.00000   0.00000
 Ionic relaxation
   EDIFFG = 0.1E-05   stopping-criterion for IOM
   NSW    =      0    number of steps for IOM
   NBLOCK =      1;   KBLOCK =      1    inner block; outer block 
   IBRION =     -1    ionic relax: 0-MD 1-quasi-New 2-CG
   NFREE  =      0    steps in history (QN), initial steepest desc. (CG)
   ISIF   =      2    stress and relaxation
   IWAVPR =     10    prediction:  0-non 1-charg 2-wave 3-comb
   ISYM   =      2    0-nonsym 1-usesym 2-fastsym
   LCORR  =      T    Harris-Foulkes like correction to forces

   POTIM  = 0.5000    time-step for ionic-motion
   TEIN   =    0.0    initial temperature
   TEBEG  =    0.0;   TEEND  =   0.0 temperature during run
   SMASS  =  -3.00    Nose mass-parameter (am)
   estimated Nose-frequenzy (Omega)   =  0.10E-29 period in steps =****** mass=  -0.902E-27a.u.
   SCALEE = 1.0000    scale energy and forces
   NPACO  =    256;   APACO  = 16.0  distance and # of slots for P.C.
   PSTRESS=    0.0 pullay stress

  Mass of Ions in am
   POMASS = 118.71 78.96
  Ionic Valenz
   ZVAL   =  14.00  6.00
  Atomic Wigner-Seitz radii
   RWIGS  =  -1.00 -1.00
  virtual crystal weights 
   VCA    =   1.00  1.00
   NELECT =      40.0000    total number of electrons
   NUPDOWN=      -1.0000    fix difference up-down

 DOS related values:
   EMIN   =  10.00;   EMAX   =-10.00  energy-range for DOS
   EFERMI =   0.00
   ISMEAR =     0;   SIGMA  =   0.01  broadening in eV -4-tet -1-fermi 0-gaus

 Electronic relaxation 2 (details)
   IALGO  =     58    algorithm
   LDIAG  =      T    sub-space diagonalisation (order eigenvalues)
   LSUBROT=      F    optimize rotation matrix (better conditioning)
   TURBO    =      0    0=normal 1=particle mesh
   IRESTART =      0    0=no restart 2=restart with 2 vectors
   NREBOOT  =      0    no. of reboots
   NMIN     =      0    reboot dimension
   EREF     =   0.00    reference energy to select bands
   IMIX   =      4    mixing-type and parameters
     AMIX     =   0.40;   BMIX     =  1.00
     AMIX_MAG =   1.60;   BMIX_MAG =  1.00
     AMIN     =   0.10
     WC   =   100.;   INIMIX=   1;  MIXPRE=   1;  MAXMIX= -45

 Intra band minimization:
   WEIMIN = 0.0000     energy-eigenvalue tresh-hold
   EBREAK =  0.52E-09  absolut break condition
   DEPER  =   0.30     relativ break condition  

   TIME   =   0.40     timestep for ELM

  volume/ion in A,a.u.               =      26.79       180.82
  Fermi-wavevector in a.u.,A,eV,Ry     =   1.178668  2.227360 18.902011  1.389259
  Thomas-Fermi vector in A             =   2.314993

 Write flags
   LWAVE        =      F    write WAVECAR
   LDOWNSAMPLE  =      F    k-point downsampling of WAVECAR
   LCHARG       =      F    write CHGCAR
   LVTOT        =      F    write LOCPOT, total local potential
   LVHAR        =      F    write LOCPOT, Hartree potential only
   LELF         =      F    write electronic localiz. function (ELF)
   LORBIT       =      0    0 simple, 1 ext, 2 COOP (PROOUT), +10 PAW based schemes


 Dipole corrections
   LMONO  =      F    monopole corrections only (constant potential shift)
   LDIPOL =      F    correct potential (dipole corrections)
   IDIPOL =      0    1-x, 2-y, 3-z, 4-all directions 
   EPSILON=  1.0000000 bulk dielectric constant

 Exchange correlation treatment:
   GGA     =    --    GGA type
   LEXCH   =     8    internal setting for exchange type
   VOSKOWN=      0    Vosko Wilk Nusair interpolation
   LHFCALC =     F    Hartree Fock is set to
   LHFONE  =     F    Hartree Fock one center treatment
   AEXX    =    0.0000 exact exchange contribution

 Linear response parameters
   LEPSILON=     F    determine dielectric tensor
   LRPA    =     F    only Hartree local field effects (RPA)
   LNABLA  =     F    use nabla operator in PAW spheres
   LVEL    =     F    velocity operator in full k-point grid
   LINTERFAST=   F  fast interpolation
   KINTER  =     0    interpolate to denser k-point grid
   CSHIFT  =0.1000    complex shift for real part using Kramers Kronig
   OMEGAMAX=  -1.0    maximum frequency
   DEG_THRESHOLD= 0.2000000E-02 threshold for treating states as degnerate
   RTIME   =   -0.100 relaxation time in fs
  (WPLASMAI=    0.000 imaginary part of plasma frequency in eV, 0.658/RTIME)
   DFIELD  = 0.0000000 0.0000000 0.0000000 field for delta impulse in time

 Orbital magnetization related:
   ORBITALMAG=     F  switch on orbital magnetization
   LCHIMAG   =     F  perturbation theory with respect to B field
   DQ        =  0.001000  dq finite difference perturbation B field
   LLRAUG    =     F  two centre corrections for induced B field



--------------------------------------------------------------------------------------------------------


 Static calculation
 charge density and potential remain constant during run
 non-spin polarized calculation
 Conjugate gradient for all bands (Freysoldt, et al. PRB 79, 241103 (2009))
 preconditioned conjugated gradient   charged. constant during bandupdate  
 perform sub-space diagonalisation
    before iterative eigenvector-optimisation
 no mixing
 using additional bands           28
 reciprocal scheme for non local part
 use partial core corrections
 calculate Harris-corrections to forces   (improved forces if not selfconsistent)
 use gradient corrections 
 WARNING: stress and forces are not correct
  (second derivative of E(xc) not defined)
 use of overlap-Matrix (Vanderbilt PP)
 Gauss-broadening in eV      SIGMA  =   0.01


--------------------------------------------------------------------------------------------------------


  energy-cutoff  :      600.00
  volume of cell :      107.18
      direct lattice vectors                 reciprocal lattice vectors
     2.135524005 -5.908169380 -0.000000000     0.234134573 -0.084628583  0.000000000
     2.135524005  5.908169380  0.000000000     0.234134573  0.084628583 -0.000000000
     0.000000000  0.000000000  4.247392980    -0.000000000 -0.000000000  0.235438540

  length of vectors
     6.282270943  6.282270943  4.247392980     0.248959826  0.248959826  0.235438540



 old parameters found on file WAVECAR:
  energy-cutoff  :      600.00
  volume of cell :      107.18
      direct lattice vectors                 reciprocal lattice vectors
     2.135524005 -5.908169380 -0.000000000     0.234134573 -0.084628583  0.000000000
     2.135524005  5.908169380  0.000000000     0.234134573  0.084628583 -0.000000000
     0.000000000  0.000000000  4.247392980    -0.000000000 -0.000000000  0.235438540

  length of vectors


 k-points in units of 2pi/SCALE and weight: Non SCF run along symmetry lines        
   0.00000000  0.00000000  0.00000000       0.003
   0.00315147 -0.00000000  0.00000000       0.003
   0.00630295 -0.00000000  0.00000000       0.003
   0.00945442 -0.00000000  0.00000000       0.003
   0.01260590 -0.00000000  0.00000000       0.003
   0.01575737 -0.00000000  0.00000000       0.003
   0.01890884 -0.00000000  0.00000000       0.003
   0.02206032 -0.00000000  0.00000000       0.003
   0.02521179 -0.00000000  0.00000000       0.003
   0.02836326 -0.00000000  0.00000000       0.003
   0.03151474 -0.00000000  0.00000000       0.003
   0.03466621 -0.00000000  0.00000000       0.003
   0.03781769 -0.00000000  0.00000000       0.003
   0.04096916 -0.00000000  0.00000000       0.003
   0.04412063 -0.00000000  0.00000000       0.003
   0.04727211 -0.00000000  0.00000000       0.003
   0.05042358 -0.00000000  0.00000000       0.003
   0.05357506 -0.00000000  0.00000000       0.003
   0.05672653 -0.00000000  0.00000000       0.003
   0.05987800 -0.00000000  0.00000000       0.003
   0.06302948 -0.00000000  0.00000000       0.003
   0.06618095 -0.00000000  0.00000000       0.003
   0.06933243 -0.00000000  0.00000000       0.003
   0.07248390 -0.00000000  0.00000000       0.003
   0.07563537 -0.00000000  0.00000000       0.003
   0.07878685 -0.00000000  0.00000000       0.003
   0.08193832 -0.00000000  0.00000000       0.003
   0.08508979 -0.00000000  0.00000000       0.003
   0.08824127 -0.00000000  0.00000000       0.003
   0.09139274 -0.00000000  0.00000000       0.003
   0.09454422 -0.00000000  0.00000000       0.003
   0.09769569 -0.00000000  0.00000000       0.003
   0.10084716 -0.00000000  0.00000000       0.003
   0.10399864 -0.00000000  0.00000000       0.003
   0.10715011 -0.00000000  0.00000000       0.003
   0.11030159 -0.00000000  0.00000000       0.003
   0.11345306 -0.00000000  0.00000000       0.003
   0.11660453 -0.00000000  0.00000000       0.003
   0.11975601 -0.00000000  0.00000000       0.003
   0.12290748 -0.00000000  0.00000000       0.003
   0.12605895 -0.00000000  0.00000000       0.003
   0.12921043 -0.00000000  0.00000000       0.003
   0.13236190 -0.00000000  0.00000000       0.003
   0.13236190 -0.00000000  0.00000000       0.003
   0.13134226  0.00282095  0.00000000       0.003
   0.13032262  0.00564191  0.00000000       0.003
   0.12930298  0.00846286  0.00000000       0.003
   0.12828334  0.01128381  0.00000000       0.003
   0.12726370  0.01410476  0.00000000       0.003
   0.12624406  0.01692572  0.00000000       0.003
   0.12522442  0.01974667  0.00000000       0.003
   0.12420477  0.02256762  0.00000000       0.003
   0.12318513  0.02538857  0.00000000       0.003
   0.12216549  0.02820953  0.00000000       0.003
   0.12114585  0.03103048  0.00000000       0.003
   0.12012621  0.03385143  0.00000000       0.003
   0.11910657  0.03667239  0.00000000       0.003
   0.11808693  0.03949334  0.00000000       0.003
   0.11706729  0.04231429  0.00000000       0.003
   0.11706729  0.04231429  0.00000000       0.003
   0.11706729  0.04231429  0.00318160       0.003
   0.11706729  0.04231429  0.00636320       0.003
   0.11706729  0.04231429  0.00954481       0.003
   0.11706729  0.04231429  0.01272641       0.003
   0.11706729  0.04231429  0.01590801       0.003
   0.11706729  0.04231429  0.01908961       0.003
   0.11706729  0.04231429  0.02227121       0.003
   0.11706729  0.04231429  0.02545282       0.003
   0.11706729  0.04231429  0.02863442       0.003
   0.11706729  0.04231429  0.03181602       0.003
   0.11706729  0.04231429  0.03499762       0.003
   0.11706729  0.04231429  0.03817922       0.003
   0.11706729  0.04231429  0.04136082       0.003
   0.11706729  0.04231429  0.04454243       0.003
   0.11706729  0.04231429  0.04772403       0.003
   0.11706729  0.04231429  0.05090563       0.003
   0.11706729  0.04231429  0.05408723       0.003
   0.11706729  0.04231429  0.05726883       0.003
   0.11706729  0.04231429  0.06045044       0.003
   0.11706729  0.04231429  0.06363204       0.003
   0.11706729  0.04231429  0.06681364       0.003
   0.11706729  0.04231429  0.06999524       0.003
   0.11706729  0.04231429  0.07317684       0.003
   0.11706729  0.04231429  0.07635845       0.003
   0.11706729  0.04231429  0.07954005       0.003
   0.11706729  0.04231429  0.08272165       0.003
   0.11706729  0.04231429  0.08590325       0.003
   0.11706729  0.04231429  0.08908485       0.003
   0.11706729  0.04231429  0.09226645       0.003
   0.11706729  0.04231429  0.09544806       0.003
   0.11706729  0.04231429  0.09862966       0.003
   0.11706729  0.04231429  0.10181126       0.003
   0.11706729  0.04231429  0.10499286       0.003
   0.11706729  0.04231429  0.10817446       0.003
   0.11706729  0.04231429  0.11135607       0.003
   0.11706729  0.04231429  0.11453767       0.003
   0.11706729  0.04231429  0.11771927       0.003
   0.11706729  0.04231429  0.11771927       0.003
   0.11808693  0.03949334  0.11771927       0.003
   0.11910657  0.03667239  0.11771927       0.003
   0.12012621  0.03385143  0.11771927       0.003
   0.12114585  0.03103048  0.11771927       0.003
   0.12216549  0.02820953  0.11771927       0.003
   0.12318513  0.02538857  0.11771927       0.003
   0.12420477  0.02256762  0.11771927       0.003
   0.12522442  0.01974667  0.11771927       0.003
   0.12624406  0.01692572  0.11771927       0.003
   0.12726370  0.01410476  0.11771927       0.003
   0.12828334  0.01128381  0.11771927       0.003
   0.12930298  0.00846286  0.11771927       0.003
   0.13032262  0.00564191  0.11771927       0.003
   0.13134226  0.00282095  0.11771927       0.003
   0.13236190 -0.00000000  0.11771927       0.003
   0.13236190 -0.00000000  0.11771927       0.003
   0.12921043 -0.00000000  0.11771927       0.003
   0.12605895 -0.00000000  0.11771927       0.003
   0.12290748 -0.00000000  0.11771927       0.003
   0.11975601 -0.00000000  0.11771927       0.003
   0.11660453 -0.00000000  0.11771927       0.003
   0.11345306 -0.00000000  0.11771927       0.003
   0.11030159 -0.00000000  0.11771927       0.003
   0.10715011 -0.00000000  0.11771927       0.003
   0.10399864 -0.00000000  0.11771927       0.003
   0.10084716 -0.00000000  0.11771927       0.003
   0.09769569 -0.00000000  0.11771927       0.003
   0.09454422 -0.00000000  0.11771927       0.003
   0.09139274 -0.00000000  0.11771927       0.003
   0.08824127 -0.00000000  0.11771927       0.003
   0.08508979 -0.00000000  0.11771927       0.003
   0.08193832 -0.00000000  0.11771927       0.003
   0.07878685 -0.00000000  0.11771927       0.003
   0.07563537 -0.00000000  0.11771927       0.003
   0.07248390 -0.00000000  0.11771927       0.003
   0.06933243 -0.00000000  0.11771927       0.003
   0.06618095 -0.00000000  0.11771927       0.003
   0.06302948 -0.00000000  0.11771927       0.003
   0.05987800 -0.00000000  0.11771927       0.003
   0.05672653 -0.00000000  0.11771927       0.003
   0.05357506 -0.00000000  0.11771927       0.003
   0.05042358 -0.00000000  0.11771927       0.003
   0.04727211 -0.00000000  0.11771927       0.003
   0.04412063 -0.00000000  0.11771927       0.003
   0.04096916 -0.00000000  0.11771927       0.003
   0.03781769 -0.00000000  0.11771927       0.003
   0.03466621 -0.00000000  0.11771927       0.003
   0.03151474 -0.00000000  0.11771927       0.003
   0.02836326 -0.00000000  0.11771927       0.003
   0.02521179 -0.00000000  0.11771927       0.003
   0.02206032 -0.00000000  0.11771927       0.003
   0.01890884 -0.00000000  0.11771927       0.003
   0.01575737 -0.00000000  0.11771927       0.003
   0.01260590 -0.00000000  0.11771927       0.003
   0.00945442 -0.00000000  0.11771927       0.003
   0.00630295 -0.00000000  0.11771927       0.003
   0.00315147 -0.00000000  0.11771927       0.003
  -0.00000000 -0.00000000  0.11771927       0.003
  -0.00000000 -0.00000000  0.11771927       0.003
  -0.00000000 -0.00000000  0.11453767       0.003
  -0.00000000 -0.00000000  0.11135607       0.003
  -0.00000000 -0.00000000  0.10817446       0.003
  -0.00000000 -0.00000000  0.10499286       0.003
  -0.00000000 -0.00000000  0.10181126       0.003
  -0.00000000 -0.00000000  0.09862966       0.003
  -0.00000000 -0.00000000  0.09544806       0.003
  -0.00000000 -0.00000000  0.09226645       0.003
  -0.00000000 -0.00000000  0.08908485       0.003
  -0.00000000 -0.00000000  0.08590325       0.003
  -0.00000000 -0.00000000  0.08272165       0.003
  -0.00000000 -0.00000000  0.07954005       0.003
  -0.00000000 -0.00000000  0.07635845       0.003
  -0.00000000 -0.00000000  0.07317684       0.003
  -0.00000000 -0.00000000  0.06999524       0.003
  -0.00000000 -0.00000000  0.06681364       0.003
  -0.00000000 -0.00000000  0.06363204       0.003
  -0.00000000 -0.00000000  0.06045044       0.003
  -0.00000000 -0.00000000  0.05726883       0.003
  -0.00000000 -0.00000000  0.05408723       0.003
  -0.00000000 -0.00000000  0.05090563       0.003
  -0.00000000 -0.00000000  0.04772403       0.003
  -0.00000000 -0.00000000  0.04454243       0.003
  -0.00000000 -0.00000000  0.04136082       0.003
  -0.00000000 -0.00000000  0.03817922       0.003
  -0.00000000 -0.00000000  0.03499762       0.003
  -0.00000000 -0.00000000  0.03181602       0.003
  -0.00000000 -0.00000000  0.02863442       0.003
  -0.00000000 -0.00000000  0.02545282       0.003
  -0.00000000 -0.00000000  0.02227121       0.003
  -0.00000000 -0.00000000  0.01908961       0.003
  -0.00000000 -0.00000000  0.01590801       0.003
  -0.00000000 -0.00000000  0.01272641       0.003
  -0.00000000 -0.00000000  0.00954481       0.003
  -0.00000000 -0.00000000  0.00636320       0.003
  -0.00000000 -0.00000000  0.00318160       0.003
   0.00000000  0.00000000  0.00000000       0.003
   0.00000000  0.00000000  0.00000000       0.003
   0.00000000  0.00313439  0.00000000       0.003
   0.00000000  0.00626878  0.00000000       0.003
   0.00000000  0.00940318  0.00000000       0.003
   0.00000000  0.01253757  0.00000000       0.003
   0.00000000  0.01567196  0.00000000       0.003
   0.00000000  0.01880635  0.00000000       0.003
   0.00000000  0.02194074  0.00000000       0.003
   0.00000000  0.02507514  0.00000000       0.003
   0.00000000  0.02820953  0.00000000       0.003
   0.00000000  0.03134392  0.00000000       0.003
   0.00000000  0.03447831  0.00000000       0.003
   0.00000000  0.03761270  0.00000000       0.003
   0.00000000  0.04074710  0.00000000       0.003
   0.00000000  0.04388149  0.00000000       0.003
   0.00000000  0.04701588  0.00000000       0.003
   0.00000000  0.05015027  0.00000000       0.003
   0.00000000  0.05328466  0.00000000       0.003
   0.00000000  0.05641906  0.00000000       0.003
   0.00000000  0.05955345  0.00000000       0.003
   0.00000000  0.06268784  0.00000000       0.003
   0.00000000  0.06582223  0.00000000       0.003
   0.00000000  0.06895662  0.00000000       0.003
   0.00000000  0.07209101  0.00000000       0.003
   0.00000000  0.07522541  0.00000000       0.003
   0.00000000  0.07835980  0.00000000       0.003
   0.00000000  0.08149419  0.00000000       0.003
   0.00000000  0.08462858  0.00000000       0.003
   0.00000000  0.08462858  0.00000000       0.003
   0.00318040  0.08462858  0.00000000       0.003
   0.00636079  0.08462858  0.00000000       0.003
   0.00954119  0.08462858  0.00000000       0.003
   0.01272158  0.08462858  0.00000000       0.003
   0.01590198  0.08462858  0.00000000       0.003
   0.01908238  0.08462858  0.00000000       0.003
   0.02226277  0.08462858  0.00000000       0.003
   0.02544317  0.08462858  0.00000000       0.003
   0.02862356  0.08462858  0.00000000       0.003
   0.03180396  0.08462858  0.00000000       0.003
   0.03498436  0.08462858  0.00000000       0.003
   0.03816475  0.08462858  0.00000000       0.003
   0.04134515  0.08462858  0.00000000       0.003
   0.04452554  0.08462858  0.00000000       0.003
   0.04770594  0.08462858  0.00000000       0.003
   0.05088633  0.08462858  0.00000000       0.003
   0.05406673  0.08462858  0.00000000       0.003
   0.05724713  0.08462858  0.00000000       0.003
   0.06042752  0.08462858  0.00000000       0.003
   0.06360792  0.08462858  0.00000000       0.003
   0.06678831  0.08462858  0.00000000       0.003
   0.06996871  0.08462858  0.00000000       0.003
   0.07314911  0.08462858  0.00000000       0.003
   0.07632950  0.08462858  0.00000000       0.003
   0.07950990  0.08462858  0.00000000       0.003
   0.08269029  0.08462858  0.00000000       0.003
   0.08587069  0.08462858  0.00000000       0.003
   0.08905109  0.08462858  0.00000000       0.003
   0.09223148  0.08462858  0.00000000       0.003
   0.09541188  0.08462858  0.00000000       0.003
   0.09859227  0.08462858  0.00000000       0.003
   0.10177267  0.08462858  0.00000000       0.003
   0.10177267  0.08462858  0.00000000       0.003
   0.10177267  0.08462858  0.00318160       0.003
   0.10177267  0.08462858  0.00636320       0.003
   0.10177267  0.08462858  0.00954481       0.003
   0.10177267  0.08462858  0.01272641       0.003
   0.10177267  0.08462858  0.01590801       0.003
   0.10177267  0.08462858  0.01908961       0.003
   0.10177267  0.08462858  0.02227121       0.003
   0.10177267  0.08462858  0.02545282       0.003
   0.10177267  0.08462858  0.02863442       0.003
   0.10177267  0.08462858  0.03181602       0.003
   0.10177267  0.08462858  0.03499762       0.003
   0.10177267  0.08462858  0.03817922       0.003
   0.10177267  0.08462858  0.04136082       0.003
   0.10177267  0.08462858  0.04454243       0.003
   0.10177267  0.08462858  0.04772403       0.003
   0.10177267  0.08462858  0.05090563       0.003
   0.10177267  0.08462858  0.05408723       0.003
   0.10177267  0.08462858  0.05726883       0.003
   0.10177267  0.08462858  0.06045044       0.003
   0.10177267  0.08462858  0.06363204       0.003
   0.10177267  0.08462858  0.06681364       0.003
   0.10177267  0.08462858  0.06999524       0.003
   0.10177267  0.08462858  0.07317684       0.003
   0.10177267  0.08462858  0.07635845       0.003
   0.10177267  0.08462858  0.07954005       0.003
   0.10177267  0.08462858  0.08272165       0.003
   0.10177267  0.08462858  0.08590325       0.003
   0.10177267  0.08462858  0.08908485       0.003
   0.10177267  0.08462858  0.09226645       0.003
   0.10177267  0.08462858  0.09544806       0.003
   0.10177267  0.08462858  0.09862966       0.003
   0.10177267  0.08462858  0.10181126       0.003
   0.10177267  0.08462858  0.10499286       0.003
   0.10177267  0.08462858  0.10817446       0.003
   0.10177267  0.08462858  0.11135607       0.003
   0.10177267  0.08462858  0.11453767       0.003
   0.10177267  0.08462858  0.11771927       0.003
   0.10177267  0.08462858  0.11771927       0.003
   0.09859227  0.08462858  0.11771927       0.003
   0.09541188  0.08462858  0.11771927       0.003
   0.09223148  0.08462858  0.11771927       0.003
   0.08905109  0.08462858  0.11771927       0.003
   0.08587069  0.08462858  0.11771927       0.003
   0.08269029  0.08462858  0.11771927       0.003
   0.07950990  0.08462858  0.11771927       0.003
   0.07632950  0.08462858  0.11771927       0.003
   0.07314911  0.08462858  0.11771927       0.003
   0.06996871  0.08462858  0.11771927       0.003
   0.06678831  0.08462858  0.11771927       0.003
   0.06360792  0.08462858  0.11771927       0.003
   0.06042752  0.08462858  0.11771927       0.003
   0.05724713  0.08462858  0.11771927       0.003
   0.05406673  0.08462858  0.11771927       0.003
   0.05088633  0.08462858  0.11771927       0.003
   0.04770594  0.08462858  0.11771927       0.003
   0.04452554  0.08462858  0.11771927       0.003
   0.04134515  0.08462858  0.11771927       0.003
   0.03816475  0.08462858  0.11771927       0.003
   0.03498436  0.08462858  0.11771927       0.003
   0.03180396  0.08462858  0.11771927       0.003
   0.02862356  0.08462858  0.11771927       0.003
   0.02544317  0.08462858  0.11771927       0.003
   0.02226277  0.08462858  0.11771927       0.003
   0.01908238  0.08462858  0.11771927       0.003
   0.01590198  0.08462858  0.11771927       0.003
   0.01272158  0.08462858  0.11771927       0.003
   0.00954119  0.08462858  0.11771927       0.003
   0.00636079  0.08462858  0.11771927       0.003
   0.00318040  0.08462858  0.11771927       0.003
   0.00000000  0.08462858  0.11771927       0.003
   0.00000000  0.08462858  0.11771927       0.003
   0.00000000  0.08462858  0.11453767       0.003
  -0.00000000  0.08462858  0.11135607       0.003
  -0.00000000  0.08462858  0.10817446       0.003
  -0.00000000  0.08462858  0.10499286       0.003
  -0.00000000  0.08462858  0.10181126       0.003
  -0.00000000  0.08462858  0.09862966       0.003
  -0.00000000  0.08462858  0.09544806       0.003
  -0.00000000  0.08462858  0.09226645       0.003
  -0.00000000  0.08462858  0.08908485       0.003
  -0.00000000  0.08462858  0.08590325       0.003
  -0.00000000  0.08462858  0.08272165       0.003
  -0.00000000  0.08462858  0.07954005       0.003
  -0.00000000  0.08462858  0.07635845       0.003
  -0.00000000  0.08462858  0.07317684       0.003
  -0.00000000  0.08462858  0.06999524       0.003
  -0.00000000  0.08462858  0.06681364       0.003
  -0.00000000  0.08462858  0.06363204       0.003
  -0.00000000  0.08462858  0.06045044       0.003
  -0.00000000  0.08462858  0.05726883       0.003
  -0.00000000  0.08462858  0.05408723       0.003
  -0.00000000  0.08462858  0.05090563       0.003
  -0.00000000  0.08462858  0.04772403       0.003
  -0.00000000  0.08462858  0.04454243       0.003
  -0.00000000  0.08462858  0.04136082       0.003
  -0.00000000  0.08462858  0.03817922       0.003
  -0.00000000  0.08462858  0.03499762       0.003
  -0.00000000  0.08462858  0.03181602       0.003
  -0.00000000  0.08462858  0.02863442       0.003
  -0.00000000  0.08462858  0.02545282       0.003
  -0.00000000  0.08462858  0.02227121       0.003
  -0.00000000  0.08462858  0.01908961       0.003
  -0.00000000  0.08462858  0.01590801       0.003
  -0.00000000  0.08462858  0.01272641       0.003
  -0.00000000  0.08462858  0.00954481       0.003
  -0.00000000  0.08462858  0.00636320       0.003
  -0.00000000  0.08462858  0.00318160       0.003
   0.00000000  0.08462858  0.00000000       0.003
  -0.00000000 -0.00000000  0.11771927       0.003
  -0.00000000  0.00313439  0.11771927       0.003
  -0.00000000  0.00626878  0.11771927       0.003
  -0.00000000  0.00940318  0.11771927       0.003
  -0.00000000  0.01253757  0.11771927       0.003
  -0.00000000  0.01567196  0.11771927       0.003
  -0.00000000  0.01880635  0.11771927       0.003
  -0.00000000  0.02194074  0.11771927       0.003
  -0.00000000  0.02507514  0.11771927       0.003
  -0.00000000  0.02820953  0.11771927       0.003
  -0.00000000  0.03134392  0.11771927       0.003
  -0.00000000  0.03447831  0.11771927       0.003
  -0.00000000  0.03761270  0.11771927       0.003
  -0.00000000  0.04074710  0.11771927       0.003
  -0.00000000  0.04388149  0.11771927       0.003
   0.00000000  0.04701588  0.11771927       0.003
   0.00000000  0.05015027  0.11771927       0.003
   0.00000000  0.05328466  0.11771927       0.003
  -0.00000000  0.05641906  0.11771927       0.003
  -0.00000000  0.05955345  0.11771927       0.003
  -0.00000000  0.06268784  0.11771927       0.003
  -0.00000000  0.06582223  0.11771927       0.003
   0.00000000  0.06895662  0.11771927       0.003
   0.00000000  0.07209101  0.11771927       0.003
   0.00000000  0.07522541  0.11771927       0.003
   0.00000000  0.07835980  0.11771927       0.003
  -0.00000000  0.08149419  0.11771927       0.003
   0.00000000  0.08462858  0.11771927       0.003

 k-points in reciprocal lattice and weights: Non SCF run along symmetry lines        
   0.00000000  0.00000000  0.00000000       0.003
   0.00673005  0.00673005  0.00000000       0.003
   0.01346010  0.01346010  0.00000000       0.003
   0.02019014  0.02019014  0.00000000       0.003
   0.02692019  0.02692019  0.00000000       0.003
   0.03365024  0.03365024  0.00000000       0.003
   0.04038029  0.04038029  0.00000000       0.003
   0.04711034  0.04711034  0.00000000       0.003
   0.05384038  0.05384038  0.00000000       0.003
   0.06057043  0.06057043  0.00000000       0.003
   0.06730048  0.06730048  0.00000000       0.003
   0.07403053  0.07403053  0.00000000       0.003
   0.08076058  0.08076058  0.00000000       0.003
   0.08749063  0.08749063  0.00000000       0.003
   0.09422067  0.09422067  0.00000000       0.003
   0.10095072  0.10095072  0.00000000       0.003
   0.10768077  0.10768077  0.00000000       0.003
   0.11441082  0.11441082  0.00000000       0.003
   0.12114087  0.12114087  0.00000000       0.003
   0.12787091  0.12787091  0.00000000       0.003
   0.13460096  0.13460096  0.00000000       0.003
   0.14133101  0.14133101  0.00000000       0.003
   0.14806106  0.14806106  0.00000000       0.003
   0.15479111  0.15479111  0.00000000       0.003
   0.16152115  0.16152115  0.00000000       0.003
   0.16825120  0.16825120  0.00000000       0.003
   0.17498125  0.17498125  0.00000000       0.003
   0.18171130  0.18171130  0.00000000       0.003
   0.18844135  0.18844135  0.00000000       0.003
   0.19517140  0.19517140  0.00000000       0.003
   0.20190144  0.20190144  0.00000000       0.003
   0.20863149  0.20863149  0.00000000       0.003
   0.21536154  0.21536154  0.00000000       0.003
   0.22209159  0.22209159  0.00000000       0.003
   0.22882164  0.22882164  0.00000000       0.003
   0.23555168  0.23555168  0.00000000       0.003
   0.24228173  0.24228173  0.00000000       0.003
   0.24901178  0.24901178  0.00000000       0.003
   0.25574183  0.25574183  0.00000000       0.003
   0.26247188  0.26247188  0.00000000       0.003
   0.26920192  0.26920192  0.00000000       0.003
   0.27593197  0.27593197  0.00000000       0.003
   0.28266202  0.28266202  0.00000000       0.003
   0.28266202  0.28266202  0.00000000       0.003
   0.26381789  0.29715122  0.00000000       0.003
   0.24497375  0.31164042  0.00000000       0.003
   0.22612962  0.32612962  0.00000000       0.003
   0.20728548  0.34061882  0.00000000       0.003
   0.18844135  0.35510801  0.00000000       0.003
   0.16959721  0.36959721  0.00000000       0.003
   0.15075308  0.38408641  0.00000000       0.003
   0.13190894  0.39857561  0.00000000       0.003
   0.11306481  0.41306481  0.00000000       0.003
   0.09422067  0.42755401  0.00000000       0.003
   0.07537654  0.44204321  0.00000000       0.003
   0.05653240  0.45653240  0.00000000       0.003
   0.03768827  0.47102160  0.00000000       0.003
   0.01884413  0.48551080  0.00000000       0.003
  -0.00000000  0.50000000  0.00000000       0.003
  -0.00000000  0.50000000  0.00000000       0.003
  -0.00000000  0.50000000  0.01351351       0.003
  -0.00000000  0.50000000  0.02702703       0.003
  -0.00000000  0.50000000  0.04054054       0.003
  -0.00000000  0.50000000  0.05405405       0.003
  -0.00000000  0.50000000  0.06756757       0.003
  -0.00000000  0.50000000  0.08108108       0.003
  -0.00000000  0.50000000  0.09459459       0.003
  -0.00000000  0.50000000  0.10810811       0.003
  -0.00000000  0.50000000  0.12162162       0.003
  -0.00000000  0.50000000  0.13513514       0.003
  -0.00000000  0.50000000  0.14864865       0.003
  -0.00000000  0.50000000  0.16216216       0.003
  -0.00000000  0.50000000  0.17567568       0.003
  -0.00000000  0.50000000  0.18918919       0.003
  -0.00000000  0.50000000  0.20270270       0.003
  -0.00000000  0.50000000  0.21621622       0.003
  -0.00000000  0.50000000  0.22972973       0.003
  -0.00000000  0.50000000  0.24324324       0.003
   0.00000000  0.50000000  0.25675676       0.003
   0.00000000  0.50000000  0.27027027       0.003
   0.00000000  0.50000000  0.28378378       0.003
   0.00000000  0.50000000  0.29729730       0.003
   0.00000000  0.50000000  0.31081081       0.003
   0.00000000  0.50000000  0.32432432       0.003
   0.00000000  0.50000000  0.33783784       0.003
   0.00000000  0.50000000  0.35135135       0.003
   0.00000000  0.50000000  0.36486486       0.003
   0.00000000  0.50000000  0.37837838       0.003
   0.00000000  0.50000000  0.39189189       0.003
   0.00000000  0.50000000  0.40540541       0.003
   0.00000000  0.50000000  0.41891892       0.003
   0.00000000  0.50000000  0.43243243       0.003
   0.00000000  0.50000000  0.44594595       0.003
   0.00000000  0.50000000  0.45945946       0.003
   0.00000000  0.50000000  0.47297297       0.003
   0.00000000  0.50000000  0.48648649       0.003
   0.00000000  0.50000000  0.50000000       0.003
   0.00000000  0.50000000  0.50000000       0.003
   0.01884413  0.48551080  0.50000000       0.003
   0.03768827  0.47102160  0.50000000       0.003
   0.05653240  0.45653240  0.50000000       0.003
   0.07537654  0.44204321  0.50000000       0.003
   0.09422067  0.42755401  0.50000000       0.003
   0.11306481  0.41306481  0.50000000       0.003
   0.13190894  0.39857561  0.50000000       0.003
   0.15075308  0.38408641  0.50000000       0.003
   0.16959721  0.36959721  0.50000000       0.003
   0.18844135  0.35510801  0.50000000       0.003
   0.20728548  0.34061882  0.50000000       0.003
   0.22612962  0.32612962  0.50000000       0.003
   0.24497375  0.31164042  0.50000000       0.003
   0.26381789  0.29715122  0.50000000       0.003
   0.28266202  0.28266202  0.50000000       0.003
   0.28266202  0.28266202  0.50000000       0.003
   0.27593197  0.27593197  0.50000000       0.003
   0.26920192  0.26920192  0.50000000       0.003
   0.26247188  0.26247188  0.50000000       0.003
   0.25574183  0.25574183  0.50000000       0.003
   0.24901178  0.24901178  0.50000000       0.003
   0.24228173  0.24228173  0.50000000       0.003
   0.23555168  0.23555168  0.50000000       0.003
   0.22882164  0.22882164  0.50000000       0.003
   0.22209159  0.22209159  0.50000000       0.003
   0.21536154  0.21536154  0.50000000       0.003
   0.20863149  0.20863149  0.50000000       0.003
   0.20190144  0.20190144  0.50000000       0.003
   0.19517140  0.19517140  0.50000000       0.003
   0.18844135  0.18844135  0.50000000       0.003
   0.18171130  0.18171130  0.50000000       0.003
   0.17498125  0.17498125  0.50000000       0.003
   0.16825120  0.16825120  0.50000000       0.003
   0.16152115  0.16152115  0.50000000       0.003
   0.15479111  0.15479111  0.50000000       0.003
   0.14806106  0.14806106  0.50000000       0.003
   0.14133101  0.14133101  0.50000000       0.003
   0.13460096  0.13460096  0.50000000       0.003
   0.12787091  0.12787091  0.50000000       0.003
   0.12114087  0.12114087  0.50000000       0.003
   0.11441082  0.11441082  0.50000000       0.003
   0.10768077  0.10768077  0.50000000       0.003
   0.10095072  0.10095072  0.50000000       0.003
   0.09422067  0.09422067  0.50000000       0.003
   0.08749063  0.08749063  0.50000000       0.003
   0.08076058  0.08076058  0.50000000       0.003
   0.07403053  0.07403053  0.50000000       0.003
   0.06730048  0.06730048  0.50000000       0.003
   0.06057043  0.06057043  0.50000000       0.003
   0.05384038  0.05384038  0.50000000       0.003
   0.04711034  0.04711034  0.50000000       0.003
   0.04038029  0.04038029  0.50000000       0.003
   0.03365024  0.03365024  0.50000000       0.003
   0.02692019  0.02692019  0.50000000       0.003
   0.02019014  0.02019014  0.50000000       0.003
   0.01346010  0.01346010  0.50000000       0.003
   0.00673005  0.00673005  0.50000000       0.003
   0.00000000  0.00000000  0.50000000       0.003
  -0.00000000  0.00000000  0.50000000       0.003
  -0.00000000  0.00000000  0.48648649       0.003
   0.00000000 -0.00000000  0.47297297       0.003
  -0.00000000  0.00000000  0.45945946       0.003
  -0.00000000  0.00000000  0.44594595       0.003
  -0.00000000  0.00000000  0.43243243       0.003
  -0.00000000  0.00000000  0.41891892       0.003
   0.00000000 -0.00000000  0.40540541       0.003
  -0.00000000  0.00000000  0.39189189       0.003
   0.00000000 -0.00000000  0.37837838       0.003
   0.00000000  0.00000000  0.36486486       0.003
   0.00000000 -0.00000000  0.35135135       0.003
   0.00000000 -0.00000000  0.33783784       0.003
  -0.00000000  0.00000000  0.32432432       0.003
  -0.00000000 -0.00000000  0.31081081       0.003
  -0.00000000 -0.00000000  0.29729730       0.003
   0.00000000  0.00000000  0.28378378       0.003
   0.00000000 -0.00000000  0.27027027       0.003
  -0.00000000  0.00000000  0.25675676       0.003
   0.00000000 -0.00000000  0.24324324       0.003
  -0.00000000  0.00000000  0.22972973       0.003
   0.00000000 -0.00000000  0.21621622       0.003
   0.00000000  0.00000000  0.20270270       0.003
  -0.00000000 -0.00000000  0.18918919       0.003
   0.00000000 -0.00000000  0.17567568       0.003
   0.00000000 -0.00000000  0.16216216       0.003
  -0.00000000  0.00000000  0.14864865       0.003
  -0.00000000 -0.00000000  0.13513514       0.003
   0.00000000 -0.00000000  0.12162162       0.003
   0.00000000 -0.00000000  0.10810811       0.003
   0.00000000  0.00000000  0.09459459       0.003
  -0.00000000 -0.00000000  0.08108108       0.003
  -0.00000000  0.00000000  0.06756757       0.003
  -0.00000000  0.00000000  0.05405405       0.003
   0.00000000 -0.00000000  0.04054054       0.003
  -0.00000000  0.00000000  0.02702703       0.003
  -0.00000000  0.00000000  0.01351351       0.003
   0.00000000  0.00000000  0.00000000       0.003
   0.00000000  0.00000000  0.00000000       0.003
  -0.01851852  0.01851852  0.00000000       0.003
  -0.03703704  0.03703704  0.00000000       0.003
  -0.05555556  0.05555556  0.00000000       0.003
  -0.07407407  0.07407407  0.00000000       0.003
  -0.09259259  0.09259259  0.00000000       0.003
  -0.11111111  0.11111111  0.00000000       0.003
  -0.12962963  0.12962963  0.00000000       0.003
  -0.14814815  0.14814815  0.00000000       0.003
  -0.16666667  0.16666667  0.00000000       0.003
  -0.18518519  0.18518519  0.00000000       0.003
  -0.20370370  0.20370370  0.00000000       0.003
  -0.22222222  0.22222222  0.00000000       0.003
  -0.24074074  0.24074074  0.00000000       0.003
  -0.25925926  0.25925926  0.00000000       0.003
  -0.27777778  0.27777778  0.00000000       0.003
  -0.29629630  0.29629630  0.00000000       0.003
  -0.31481481  0.31481481  0.00000000       0.003
  -0.33333333  0.33333333  0.00000000       0.003
  -0.35185185  0.35185185  0.00000000       0.003
  -0.37037037  0.37037037  0.00000000       0.003
  -0.38888889  0.38888889  0.00000000       0.003
  -0.40740741  0.40740741  0.00000000       0.003
  -0.42592593  0.42592593  0.00000000       0.003
  -0.44444444  0.44444444  0.00000000       0.003
  -0.46296296  0.46296296  0.00000000       0.003
  -0.48148148  0.48148148  0.00000000       0.003
  -0.50000000  0.50000000  0.00000000       0.003
  -0.50000000  0.50000000  0.00000000       0.003
  -0.49320819  0.50679181  0.00000000       0.003
  -0.48641638  0.51358362  0.00000000       0.003
  -0.47962456  0.52037544  0.00000000       0.003
  -0.47283275  0.52716725  0.00000000       0.003
  -0.46604094  0.53395906  0.00000000       0.003
  -0.45924913  0.54075087  0.00000000       0.003
  -0.45245732  0.54754268  0.00000000       0.003
  -0.44566551  0.55433449  0.00000000       0.003
  -0.43887369  0.56112631  0.00000000       0.003
  -0.43208188  0.56791812  0.00000000       0.003
  -0.42529007  0.57470993  0.00000000       0.003
  -0.41849826  0.58150174  0.00000000       0.003
  -0.41170645  0.58829355  0.00000000       0.003
  -0.40491463  0.59508537  0.00000000       0.003
  -0.39812282  0.60187718  0.00000000       0.003
  -0.39133101  0.60866899  0.00000000       0.003
  -0.38453920  0.61546080  0.00000000       0.003
  -0.37774739  0.62225261  0.00000000       0.003
  -0.37095557  0.62904443  0.00000000       0.003
  -0.36416376  0.63583624  0.00000000       0.003
  -0.35737195  0.64262805  0.00000000       0.003
  -0.35058014  0.64941986  0.00000000       0.003
  -0.34378833  0.65621167  0.00000000       0.003
  -0.33699652  0.66300348  0.00000000       0.003
  -0.33020470  0.66979530  0.00000000       0.003
  -0.32341289  0.67658711  0.00000000       0.003
  -0.31662108  0.68337892  0.00000000       0.003
  -0.30982927  0.69017073  0.00000000       0.003
  -0.30303746  0.69696254  0.00000000       0.003
  -0.29624564  0.70375436  0.00000000       0.003
  -0.28945383  0.71054617  0.00000000       0.003
  -0.28266202  0.71733798  0.00000000       0.003
  -0.28266202  0.71733798  0.00000000       0.003
  -0.28266202  0.71733798  0.01351351       0.003
  -0.28266202  0.71733798  0.02702703       0.003
  -0.28266202  0.71733798  0.04054054       0.003
  -0.28266202  0.71733798  0.05405405       0.003
  -0.28266202  0.71733798  0.06756757       0.003
  -0.28266202  0.71733798  0.08108108       0.003
  -0.28266202  0.71733798  0.09459459       0.003
  -0.28266202  0.71733798  0.10810811       0.003
  -0.28266202  0.71733798  0.12162162       0.003
  -0.28266202  0.71733798  0.13513514       0.003
  -0.28266202  0.71733798  0.14864865       0.003
  -0.28266202  0.71733798  0.16216216       0.003
  -0.28266202  0.71733798  0.17567568       0.003
  -0.28266202  0.71733798  0.18918919       0.003
  -0.28266202  0.71733798  0.20270270       0.003
  -0.28266202  0.71733798  0.21621622       0.003
  -0.28266202  0.71733798  0.22972973       0.003
  -0.28266202  0.71733798  0.24324324       0.003
  -0.28266202  0.71733798  0.25675676       0.003
  -0.28266202  0.71733798  0.27027027       0.003
  -0.28266202  0.71733798  0.28378378       0.003
  -0.28266202  0.71733798  0.29729730       0.003
  -0.28266202  0.71733798  0.31081081       0.003
  -0.28266202  0.71733798  0.32432432       0.003
  -0.28266202  0.71733798  0.33783784       0.003
  -0.28266202  0.71733798  0.35135135       0.003
  -0.28266202  0.71733798  0.36486486       0.003
  -0.28266202  0.71733798  0.37837838       0.003
  -0.28266202  0.71733798  0.39189189       0.003
  -0.28266202  0.71733798  0.40540541       0.003
  -0.28266202  0.71733798  0.41891892       0.003
  -0.28266202  0.71733798  0.43243243       0.003
  -0.28266202  0.71733798  0.44594595       0.003
  -0.28266202  0.71733798  0.45945946       0.003
  -0.28266202  0.71733798  0.47297297       0.003
  -0.28266202  0.71733798  0.48648649       0.003
  -0.28266202  0.71733798  0.50000000       0.003
  -0.28266202  0.71733798  0.50000000       0.003
  -0.28945383  0.71054617  0.50000000       0.003
  -0.29624564  0.70375436  0.50000000       0.003
  -0.30303746  0.69696254  0.50000000       0.003
  -0.30982927  0.69017073  0.50000000       0.003
  -0.31662108  0.68337892  0.50000000       0.003
  -0.32341289  0.67658711  0.50000000       0.003
  -0.33020470  0.66979530  0.50000000       0.003
  -0.33699652  0.66300348  0.50000000       0.003
  -0.34378833  0.65621167  0.50000000       0.003
  -0.35058014  0.64941986  0.50000000       0.003
  -0.35737195  0.64262805  0.50000000       0.003
  -0.36416376  0.63583624  0.50000000       0.003
  -0.37095557  0.62904443  0.50000000       0.003
  -0.37774739  0.62225261  0.50000000       0.003
  -0.38453920  0.61546080  0.50000000       0.003
  -0.39133101  0.60866899  0.50000000       0.003
  -0.39812282  0.60187718  0.50000000       0.003
  -0.40491463  0.59508537  0.50000000       0.003
  -0.41170645  0.58829355  0.50000000       0.003
  -0.41849826  0.58150174  0.50000000       0.003
  -0.42529007  0.57470993  0.50000000       0.003
  -0.43208188  0.56791812  0.50000000       0.003
  -0.43887369  0.56112631  0.50000000       0.003
  -0.44566551  0.55433449  0.50000000       0.003
  -0.45245732  0.54754268  0.50000000       0.003
  -0.45924913  0.54075087  0.50000000       0.003
  -0.46604094  0.53395906  0.50000000       0.003
  -0.47283275  0.52716725  0.50000000       0.003
  -0.47962456  0.52037544  0.50000000       0.003
  -0.48641638  0.51358362  0.50000000       0.003
  -0.49320819  0.50679181  0.50000000       0.003
  -0.50000000  0.50000000  0.50000000       0.003
  -0.50000000  0.50000000  0.50000000       0.003
  -0.50000000  0.50000000  0.48648649       0.003
  -0.50000000  0.50000000  0.47297297       0.003
  -0.50000000  0.50000000  0.45945946       0.003
  -0.50000000  0.50000000  0.44594595       0.003
  -0.50000000  0.50000000  0.43243243       0.003
  -0.50000000  0.50000000  0.41891892       0.003
  -0.50000000  0.50000000  0.40540541       0.003
  -0.50000000  0.50000000  0.39189189       0.003
  -0.50000000  0.50000000  0.37837838       0.003
  -0.50000000  0.50000000  0.36486486       0.003
  -0.50000000  0.50000000  0.35135135       0.003
  -0.50000000  0.50000000  0.33783784       0.003
  -0.50000000  0.50000000  0.32432432       0.003
  -0.50000000  0.50000000  0.31081081       0.003
  -0.50000000  0.50000000  0.29729730       0.003
  -0.50000000  0.50000000  0.28378378       0.003
  -0.50000000  0.50000000  0.27027027       0.003
  -0.50000000  0.50000000  0.25675676       0.003
  -0.50000000  0.50000000  0.24324324       0.003
  -0.50000000  0.50000000  0.22972973       0.003
  -0.50000000  0.50000000  0.21621622       0.003
  -0.50000000  0.50000000  0.20270270       0.003
  -0.50000000  0.50000000  0.18918919       0.003
  -0.50000000  0.50000000  0.17567568       0.003
  -0.50000000  0.50000000  0.16216216       0.003
  -0.50000000  0.50000000  0.14864865       0.003
  -0.50000000  0.50000000  0.13513514       0.003
  -0.50000000  0.50000000  0.12162162       0.003
  -0.50000000  0.50000000  0.10810811       0.003
  -0.50000000  0.50000000  0.09459459       0.003
  -0.50000000  0.50000000  0.08108108       0.003
  -0.50000000  0.50000000  0.06756757       0.003
  -0.50000000  0.50000000  0.05405405       0.003
  -0.50000000  0.50000000  0.04054054       0.003
  -0.50000000  0.50000000  0.02702703       0.003
  -0.50000000  0.50000000  0.01351351       0.003
  -0.50000000  0.50000000  0.00000000       0.003
  -0.00000000  0.00000000  0.50000000       0.003
  -0.01851852  0.01851852  0.50000000       0.003
  -0.03703704  0.03703704  0.50000000       0.003
  -0.05555556  0.05555556  0.50000000       0.003
  -0.07407407  0.07407407  0.50000000       0.003
  -0.09259259  0.09259259  0.50000000       0.003
  -0.11111111  0.11111111  0.50000000       0.003
  -0.12962963  0.12962963  0.50000000       0.003
  -0.14814815  0.14814815  0.50000000       0.003
  -0.16666667  0.16666667  0.50000000       0.003
  -0.18518519  0.18518519  0.50000000       0.003
  -0.20370370  0.20370370  0.50000000       0.003
  -0.22222222  0.22222222  0.50000000       0.003
  -0.24074074  0.24074074  0.50000000       0.003
  -0.25925926  0.25925926  0.50000000       0.003
  -0.27777778  0.27777778  0.50000000       0.003
  -0.29629630  0.29629630  0.50000000       0.003
  -0.31481481  0.31481481  0.50000000       0.003
  -0.33333333  0.33333333  0.50000000       0.003
  -0.35185185  0.35185185  0.50000000       0.003
  -0.37037037  0.37037037  0.50000000       0.003
  -0.38888889  0.38888889  0.50000000       0.003
  -0.40740741  0.40740741  0.50000000       0.003
  -0.42592593  0.42592593  0.50000000       0.003
  -0.44444444  0.44444444  0.50000000       0.003
  -0.46296296  0.46296296  0.50000000       0.003
  -0.48148148  0.48148148  0.50000000       0.003
  -0.50000000  0.50000000  0.50000000       0.003

 position of ions in fractional coordinates (direct lattice) 
   0.37512364  0.62487636  0.75000000
   0.62487636  0.37512364  0.25000000
   0.14341737  0.85658263  0.75000000
   0.85658263  0.14341737  0.25000000

 position of ions in cartesian coordinates  (Angst):
   2.13552401  1.47558137  3.18554474
   2.13552401 -1.47558137  1.06184824
   2.13552401  4.21350115  3.18554474
   2.13552400 -4.21350115  1.06184824



--------------------------------------------------------------------------------------------------------


 k-point  1 :   0.0000 0.0000 0.0000  plane waves:    3595
 k-point  2 :   0.0067 0.0067 0.0000  plane waves:    3595
 k-point  3 :   0.0135 0.0135 0.0000  plane waves:    3595
 k-point  4 :   0.0202 0.0202 0.0000  plane waves:    3597
 k-point  5 :   0.0269 0.0269 0.0000  plane waves:    3597
 k-point  6 :   0.0337 0.0337 0.0000  plane waves:    3595
 k-point  7 :   0.0404 0.0404 0.0000  plane waves:    3579
 k-point  8 :   0.0471 0.0471 0.0000  plane waves:    3575
 k-point  9 :   0.0538 0.0538 0.0000  plane waves:    3571
 k-point 10 :   0.0606 0.0606 0.0000  plane waves:    3569
 k-point 11 :   0.0673 0.0673 0.0000  plane waves:    3573
 k-point 12 :   0.0740 0.0740 0.0000  plane waves:    3577
 k-point 13 :   0.0808 0.0808 0.0000  plane waves:    3581
 k-point 14 :   0.0875 0.0875 0.0000  plane waves:    3581
 k-point 15 :   0.0942 0.0942 0.0000  plane waves:    3585
 k-point 16 :   0.1010 0.1010 0.0000  plane waves:    3581
 k-point 17 :   0.1077 0.1077 0.0000  plane waves:    3577
 k-point 18 :   0.1144 0.1144 0.0000  plane waves:    3585
 k-point 19 :   0.1211 0.1211 0.0000  plane waves:    3589
 k-point 20 :   0.1279 0.1279 0.0000  plane waves:    3587
 k-point 21 :   0.1346 0.1346 0.0000  plane waves:    3583
 k-point 22 :   0.1413 0.1413 0.0000  plane waves:    3579
 k-point 23 :   0.1481 0.1481 0.0000  plane waves:    3573
 k-point 24 :   0.1548 0.1548 0.0000  plane waves:    3569
 k-point 25 :   0.1615 0.1615 0.0000  plane waves:    3573
 k-point 26 :   0.1683 0.1683 0.0000  plane waves:    3569
 k-point 27 :   0.1750 0.1750 0.0000  plane waves:    3565
 k-point 28 :   0.1817 0.1817 0.0000  plane waves:    3577
 k-point 29 :   0.1884 0.1884 0.0000  plane waves:    3581
 k-point 30 :   0.1952 0.1952 0.0000  plane waves:    3585
 k-point 31 :   0.2019 0.2019 0.0000  plane waves:    3585
 k-point 32 :   0.2086 0.2086 0.0000  plane waves:    3581
 k-point 33 :   0.2154 0.2154 0.0000  plane waves:    3581
 k-point 34 :   0.2221 0.2221 0.0000  plane waves:    3577
 k-point 35 :   0.2288 0.2288 0.0000  plane waves:    3577
 k-point 36 :   0.2356 0.2356 0.0000  plane waves:    3579
 k-point 37 :   0.2423 0.2423 0.0000  plane waves:    3577
 k-point 38 :   0.2490 0.2490 0.0000  plane waves:    3581
 k-point 39 :   0.2557 0.2557 0.0000  plane waves:    3583
 k-point 40 :   0.2625 0.2625 0.0000  plane waves:    3583
 k-point 41 :   0.2692 0.2692 0.0000  plane waves:    3588
 k-point 42 :   0.2759 0.2759 0.0000  plane waves:    3596
 k-point 43 :   0.2827 0.2827 0.0000  plane waves:    3592
 k-point 44 :   0.2827 0.2827 0.0000  plane waves:    3592
 k-point 45 :   0.2638 0.2972 0.0000  plane waves:    3586
 k-point 46 :   0.2450 0.3116 0.0000  plane waves:    3586
 k-point 47 :   0.2261 0.3261 0.0000  plane waves:    3590
 k-point 48 :   0.2073 0.3406 0.0000  plane waves:    3586
 k-point 49 :   0.1884 0.3551 0.0000  plane waves:    3582
 k-point 50 :   0.1696 0.3696 0.0000  plane waves:    3578
 k-point 51 :   0.1508 0.3841 0.0000  plane waves:    3577
 k-point 52 :   0.1319 0.3986 0.0000  plane waves:    3579
 k-point 53 :   0.1131 0.4131 0.0000  plane waves:    3582
 k-point 54 :   0.0942 0.4276 0.0000  plane waves:    3579
 k-point 55 :   0.0754 0.4420 0.0000  plane waves:    3584
 k-point 56 :   0.0565 0.4565 0.0000  plane waves:    3588
 k-point 57 :   0.0377 0.4710 0.0000  plane waves:    3586
 k-point 58 :   0.0188 0.4855 0.0000  plane waves:    3583
 k-point 59 :  -0.0000 0.5000 0.0000  plane waves:    3584
 k-point 60 :  -0.0000 0.5000 0.0000  plane waves:    3584
 k-point 61 :  -0.0000 0.5000 0.0135  plane waves:    3582
 k-point 62 :  -0.0000 0.5000 0.0270  plane waves:    3580
 k-point 63 :  -0.0000 0.5000 0.0405  plane waves:    3578
 k-point 64 :  -0.0000 0.5000 0.0541  plane waves:    3576
 k-point 65 :  -0.0000 0.5000 0.0676  plane waves:    3580
 k-point 66 :  -0.0000 0.5000 0.0811  plane waves:    3580
 k-point 67 :  -0.0000 0.5000 0.0946  plane waves:    3576
 k-point 68 :  -0.0000 0.5000 0.1081  plane waves:    3582
 k-point 69 :  -0.0000 0.5000 0.1216  plane waves:    3578
 k-point 70 :  -0.0000 0.5000 0.1351  plane waves:    3578
 k-point 71 :  -0.0000 0.5000 0.1486  plane waves:    3576
 k-point 72 :  -0.0000 0.5000 0.1622  plane waves:    3572
 k-point 73 :  -0.0000 0.5000 0.1757  plane waves:    3566
 k-point 74 :  -0.0000 0.5000 0.1892  plane waves:    3562
 k-point 75 :  -0.0000 0.5000 0.2027  plane waves:    3560
 k-point 76 :  -0.0000 0.5000 0.2162  plane waves:    3560
 k-point 77 :  -0.0000 0.5000 0.2297  plane waves:    3562
 k-point 78 :  -0.0000 0.5000 0.2432  plane waves:    3562
 k-point 79 :   0.0000 0.5000 0.2568  plane waves:    3560
 k-point 80 :   0.0000 0.5000 0.2703  plane waves:    3564
 k-point 81 :   0.0000 0.5000 0.2838  plane waves:    3564
 k-point 82 :   0.0000 0.5000 0.2973  plane waves:    3566
 k-point 83 :   0.0000 0.5000 0.3108  plane waves:    3558
 k-point 84 :   0.0000 0.5000 0.3243  plane waves:    3558
 k-point 85 :   0.0000 0.5000 0.3378  plane waves:    3562
 k-point 86 :   0.0000 0.5000 0.3514  plane waves:    3556
 k-point 87 :   0.0000 0.5000 0.3649  plane waves:    3554
 k-point 88 :   0.0000 0.5000 0.3784  plane waves:    3550
 k-point 89 :   0.0000 0.5000 0.3919  plane waves:    3554
 k-point 90 :   0.0000 0.5000 0.4054  plane waves:    3556
 k-point 91 :   0.0000 0.5000 0.4189  plane waves:    3556
 k-point 92 :   0.0000 0.5000 0.4324  plane waves:    3558
 k-point 93 :   0.0000 0.5000 0.4459  plane waves:    3560
 k-point 94 :   0.0000 0.5000 0.4595  plane waves:    3556
 k-point 95 :   0.0000 0.5000 0.4730  plane waves:    3550
 k-point 96 :   0.0000 0.5000 0.4865  plane waves:    3554
 k-point 97 :   0.0000 0.5000 0.5000  plane waves:    3556
 k-point 98 :   0.0000 0.5000 0.5000  plane waves:    3556
 k-point 99 :   0.0188 0.4855 0.5000  plane waves:    3556
 k-point ** :   0.0377 0.4710 0.5000  plane waves:    3562
 k-point ** :   0.0565 0.4565 0.5000  plane waves:    3550
 k-point ** :   0.0754 0.4420 0.5000  plane waves:    3542
 k-point ** :   0.0942 0.4276 0.5000  plane waves:    3546
 k-point ** :   0.1131 0.4131 0.5000  plane waves:    3546
 k-point ** :   0.1319 0.3986 0.5000  plane waves:    3546
 k-point ** :   0.1508 0.3841 0.5000  plane waves:    3546
 k-point ** :   0.1696 0.3696 0.5000  plane waves:    3546
 k-point ** :   0.1884 0.3551 0.5000  plane waves:    3544
 k-point ** :   0.2073 0.3406 0.5000  plane waves:    3542
 k-point ** :   0.2261 0.3261 0.5000  plane waves:    3548
 k-point ** :   0.2450 0.3116 0.5000  plane waves:    3548
 k-point ** :   0.2638 0.2972 0.5000  plane waves:    3546
 k-point ** :   0.2827 0.2827 0.5000  plane waves:    3550
 k-point ** :   0.2827 0.2827 0.5000  plane waves:    3550
 k-point ** :   0.2759 0.2759 0.5000  plane waves:    3554
 k-point ** :   0.2692 0.2692 0.5000  plane waves:    3550
 k-point ** :   0.2625 0.2625 0.5000  plane waves:    3550
 k-point ** :   0.2557 0.2557 0.5000  plane waves:    3542
 k-point ** :   0.2490 0.2490 0.5000  plane waves:    3542
 k-point ** :   0.2423 0.2423 0.5000  plane waves:    3548
 k-point ** :   0.2356 0.2356 0.5000  plane waves:    3552
 k-point ** :   0.2288 0.2288 0.5000  plane waves:    3556
 k-point ** :   0.2221 0.2221 0.5000  plane waves:    3564
 k-point ** :   0.2154 0.2154 0.5000  plane waves:    3560
 k-point ** :   0.2086 0.2086 0.5000  plane waves:    3556
 k-point ** :   0.2019 0.2019 0.5000  plane waves:    3556
 k-point ** :   0.1952 0.1952 0.5000  plane waves:    3570
 k-point ** :   0.1884 0.1884 0.5000  plane waves:    3566
 k-point ** :   0.1817 0.1817 0.5000  plane waves:    3570
 k-point ** :   0.1750 0.1750 0.5000  plane waves:    3574
 k-point ** :   0.1683 0.1683 0.5000  plane waves:    3578
 k-point ** :   0.1615 0.1615 0.5000  plane waves:    3578
 k-point ** :   0.1548 0.1548 0.5000  plane waves:    3574
 k-point ** :   0.1481 0.1481 0.5000  plane waves:    3574
 k-point ** :   0.1413 0.1413 0.5000  plane waves:    3566
 k-point ** :   0.1346 0.1346 0.5000  plane waves:    3574
 k-point ** :   0.1279 0.1279 0.5000  plane waves:    3574
 k-point ** :   0.1211 0.1211 0.5000  plane waves:    3574
 k-point ** :   0.1144 0.1144 0.5000  plane waves:    3572
 k-point ** :   0.1077 0.1077 0.5000  plane waves:    3572
 k-point ** :   0.1010 0.1010 0.5000  plane waves:    3560
 k-point ** :   0.0942 0.0942 0.5000  plane waves:    3556
 k-point ** :   0.0875 0.0875 0.5000  plane waves:    3552
 k-point ** :   0.0808 0.0808 0.5000  plane waves:    3556
 k-point ** :   0.0740 0.0740 0.5000  plane waves:    3562
 k-point ** :   0.0673 0.0673 0.5000  plane waves:    3558
 k-point ** :   0.0606 0.0606 0.5000  plane waves:    3562
 k-point ** :   0.0538 0.0538 0.5000  plane waves:    3574
 k-point ** :   0.0471 0.0471 0.5000  plane waves:    3578
 k-point ** :   0.0404 0.0404 0.5000  plane waves:    3582
 k-point ** :   0.0337 0.0337 0.5000  plane waves:    3586
 k-point ** :   0.0269 0.0269 0.5000  plane waves:    3590
 k-point ** :   0.0202 0.0202 0.5000  plane waves:    3586
 k-point ** :   0.0135 0.0135 0.5000  plane waves:    3586
 k-point ** :   0.0067 0.0067 0.5000  plane waves:    3588
 k-point ** :   0.0000 0.0000 0.5000  plane waves:    3596
 k-point ** :  -0.0000 0.0000 0.5000  plane waves:    3596
 k-point ** :  -0.0000 0.0000 0.4865  plane waves:    3592
 k-point ** :   0.0000-0.0000 0.4730  plane waves:    3599
 k-point ** :  -0.0000 0.0000 0.4595  plane waves:    3595
 k-point ** :  -0.0000 0.0000 0.4459  plane waves:    3597
 k-point ** :  -0.0000 0.0000 0.4324  plane waves:    3601
 k-point ** :  -0.0000 0.0000 0.4189  plane waves:    3601
 k-point ** :   0.0000-0.0000 0.4054  plane waves:    3605
 k-point ** :  -0.0000 0.0000 0.3919  plane waves:    3609
 k-point ** :   0.0000-0.0000 0.3784  plane waves:    3601
 k-point ** :   0.0000 0.0000 0.3649  plane waves:    3585
 k-point ** :   0.0000-0.0000 0.3514  plane waves:    3595
 k-point ** :   0.0000-0.0000 0.3378  plane waves:    3599
 k-point ** :  -0.0000 0.0000 0.3243  plane waves:    3599
 k-point ** :  -0.0000-0.0000 0.3108  plane waves:    3601
 k-point ** :  -0.0000-0.0000 0.2973  plane waves:    3607
 k-point ** :   0.0000 0.0000 0.2838  plane waves:    3611
 k-point ** :   0.0000-0.0000 0.2703  plane waves:    3603
 k-point ** :  -0.0000 0.0000 0.2568  plane waves:    3599
 k-point ** :   0.0000-0.0000 0.2432  plane waves:    3605
 k-point ** :  -0.0000 0.0000 0.2297  plane waves:    3611
 k-point ** :   0.0000-0.0000 0.2162  plane waves:    3599
 k-point ** :   0.0000 0.0000 0.2027  plane waves:    3605
 k-point ** :  -0.0000-0.0000 0.1892  plane waves:    3593
 k-point ** :   0.0000-0.0000 0.1757  plane waves:    3589
 k-point ** :   0.0000-0.0000 0.1622  plane waves:    3583
 k-point ** :  -0.0000 0.0000 0.1486  plane waves:    3579
 k-point ** :  -0.0000-0.0000 0.1351  plane waves:    3575
 k-point ** :   0.0000-0.0000 0.1216  plane waves:    3575
 k-point ** :   0.0000-0.0000 0.1081  plane waves:    3583
 k-point ** :   0.0000 0.0000 0.0946  plane waves:    3583
 k-point ** :  -0.0000-0.0000 0.0811  plane waves:    3575
 k-point ** :  -0.0000 0.0000 0.0676  plane waves:    3581
 k-point ** :  -0.0000 0.0000 0.0541  plane waves:    3575
 k-point ** :   0.0000-0.0000 0.0405  plane waves:    3579
 k-point ** :  -0.0000 0.0000 0.0270  plane waves:    3593
 k-point ** :  -0.0000 0.0000 0.0135  plane waves:    3591
 k-point ** :   0.0000 0.0000 0.0000  plane waves:    3595
 k-point ** :   0.0000 0.0000 0.0000  plane waves:    3595
 k-point ** :  -0.0185 0.0185 0.0000  plane waves:    3591
 k-point ** :  -0.0370 0.0370 0.0000  plane waves:    3583
 k-point ** :  -0.0556 0.0556 0.0000  plane waves:    3577
 k-point ** :  -0.0741 0.0741 0.0000  plane waves:    3571
 k-point ** :  -0.0926 0.0926 0.0000  plane waves:    3573
 k-point ** :  -0.1111 0.1111 0.0000  plane waves:    3563
 k-point ** :  -0.1296 0.1296 0.0000  plane waves:    3559
 k-point ** :  -0.1481 0.1481 0.0000  plane waves:    3563
 k-point ** :  -0.1667 0.1667 0.0000  plane waves:    3563
 k-point ** :  -0.1852 0.1852 0.0000  plane waves:    3559
 k-point ** :  -0.2037 0.2037 0.0000  plane waves:    3568
 k-point ** :  -0.2222 0.2222 0.0000  plane waves:    3570
 k-point ** :  -0.2407 0.2407 0.0000  plane waves:    3574
 k-point ** :  -0.2593 0.2593 0.0000  plane waves:    3568
 k-point ** :  -0.2778 0.2778 0.0000  plane waves:    3564
 k-point ** :  -0.2963 0.2963 0.0000  plane waves:    3574
 k-point ** :  -0.3148 0.3148 0.0000  plane waves:    3578
 k-point ** :  -0.3333 0.3333 0.0000  plane waves:    3574
 k-point ** :  -0.3519 0.3519 0.0000  plane waves:    3574
 k-point ** :  -0.3704 0.3704 0.0000  plane waves:    3582
 k-point ** :  -0.3889 0.3889 0.0000  plane waves:    3576
 k-point ** :  -0.4074 0.4074 0.0000  plane waves:    3574
 k-point ** :  -0.4259 0.4259 0.0000  plane waves:    3572
 k-point ** :  -0.4444 0.4444 0.0000  plane waves:    3572
 k-point ** :  -0.4630 0.4630 0.0000  plane waves:    3570
 k-point ** :  -0.4815 0.4815 0.0000  plane waves:    3568
 k-point ** :  -0.5000 0.5000 0.0000  plane waves:    3568
 k-point ** :  -0.5000 0.5000 0.0000  plane waves:    3568
 k-point ** :  -0.4932 0.5068 0.0000  plane waves:    3568
 k-point ** :  -0.4864 0.5136 0.0000  plane waves:    3564
 k-point ** :  -0.4796 0.5204 0.0000  plane waves:    3568
 k-point ** :  -0.4728 0.5272 0.0000  plane waves:    3568
 k-point ** :  -0.4660 0.5340 0.0000  plane waves:    3564
 k-point ** :  -0.4592 0.5408 0.0000  plane waves:    3568
 k-point ** :  -0.4525 0.5475 0.0000  plane waves:    3566
 k-point ** :  -0.4457 0.5543 0.0000  plane waves:    3568
 k-point ** :  -0.4389 0.5611 0.0000  plane waves:    3568
 k-point ** :  -0.4321 0.5679 0.0000  plane waves:    3574
 k-point ** :  -0.4253 0.5747 0.0000  plane waves:    3576
 k-point ** :  -0.4185 0.5815 0.0000  plane waves:    3578
 k-point ** :  -0.4117 0.5883 0.0000  plane waves:    3586
 k-point ** :  -0.4049 0.5951 0.0000  plane waves:    3588
 k-point ** :  -0.3981 0.6019 0.0000  plane waves:    3584
 k-point ** :  -0.3913 0.6087 0.0000  plane waves:    3588
 k-point ** :  -0.3845 0.6155 0.0000  plane waves:    3592
 k-point ** :  -0.3777 0.6223 0.0000  plane waves:    3600
 k-point ** :  -0.3710 0.6290 0.0000  plane waves:    3604
 k-point ** :  -0.3642 0.6358 0.0000  plane waves:    3604
 k-point ** :  -0.3574 0.6426 0.0000  plane waves:    3588
 k-point ** :  -0.3506 0.6494 0.0000  plane waves:    3584
 k-point ** :  -0.3438 0.6562 0.0000  plane waves:    3588
 k-point ** :  -0.3370 0.6630 0.0000  plane waves:    3592
 k-point ** :  -0.3302 0.6698 0.0000  plane waves:    3586
 k-point ** :  -0.3234 0.6766 0.0000  plane waves:    3588
 k-point ** :  -0.3166 0.6834 0.0000  plane waves:    3584
 k-point ** :  -0.3098 0.6902 0.0000  plane waves:    3592
 k-point ** :  -0.3030 0.6970 0.0000  plane waves:    3588
 k-point ** :  -0.2962 0.7038 0.0000  plane waves:    3592
 k-point ** :  -0.2895 0.7105 0.0000  plane waves:    3588
 k-point ** :  -0.2827 0.7173 0.0000  plane waves:    3592
 k-point ** :  -0.2827 0.7173 0.0000  plane waves:    3592
 k-point ** :  -0.2827 0.7173 0.0135  plane waves:    3588
 k-point ** :  -0.2827 0.7173 0.0270  plane waves:    3580
 k-point ** :  -0.2827 0.7173 0.0405  plane waves:    3586
 k-point ** :  -0.2827 0.7173 0.0541  plane waves:    3586
 k-point ** :  -0.2827 0.7173 0.0676  plane waves:    3584
 k-point ** :  -0.2827 0.7173 0.0811  plane waves:    3578
 k-point ** :  -0.2827 0.7173 0.0946  plane waves:    3577
 k-point ** :  -0.2827 0.7173 0.1081  plane waves:    3577
 k-point ** :  -0.2827 0.7173 0.1216  plane waves:    3577
 k-point ** :  -0.2827 0.7173 0.1351  plane waves:    3575
 k-point ** :  -0.2827 0.7173 0.1486  plane waves:    3577
 k-point ** :  -0.2827 0.7173 0.1622  plane waves:    3584
 k-point ** :  -0.2827 0.7173 0.1757  plane waves:    3577
 k-point ** :  -0.2827 0.7173 0.1892  plane waves:    3575
 k-point ** :  -0.2827 0.7173 0.2027  plane waves:    3577
 k-point ** :  -0.2827 0.7173 0.2162  plane waves:    3573
 k-point ** :  -0.2827 0.7173 0.2297  plane waves:    3569
 k-point ** :  -0.2827 0.7173 0.2432  plane waves:    3568
 k-point ** :  -0.2827 0.7173 0.2568  plane waves:    3566
 k-point ** :  -0.2827 0.7173 0.2703  plane waves:    3568
 k-point ** :  -0.2827 0.7173 0.2838  plane waves:    3560
 k-point ** :  -0.2827 0.7173 0.2973  plane waves:    3560
 k-point ** :  -0.2827 0.7173 0.3108  plane waves:    3564
 k-point ** :  -0.2827 0.7173 0.3243  plane waves:    3568
 k-point ** :  -0.2827 0.7173 0.3378  plane waves:    3568
 k-point ** :  -0.2827 0.7173 0.3514  plane waves:    3564
 k-point ** :  -0.2827 0.7173 0.3649  plane waves:    3559
 k-point ** :  -0.2827 0.7173 0.3784  plane waves:    3561
 k-point ** :  -0.2827 0.7173 0.3919  plane waves:    3561
 k-point ** :  -0.2827 0.7173 0.4054  plane waves:    3557
 k-point ** :  -0.2827 0.7173 0.4189  plane waves:    3554
 k-point ** :  -0.2827 0.7173 0.4324  plane waves:    3552
 k-point ** :  -0.2827 0.7173 0.4459  plane waves:    3560
 k-point ** :  -0.2827 0.7173 0.4595  plane waves:    3560
 k-point ** :  -0.2827 0.7173 0.4730  plane waves:    3556
 k-point ** :  -0.2827 0.7173 0.4865  plane waves:    3552
 k-point ** :  -0.2827 0.7173 0.5000  plane waves:    3550
 k-point ** :  -0.2827 0.7173 0.5000  plane waves:    3550
 k-point ** :  -0.2895 0.7105 0.5000  plane waves:    3546
 k-point ** :  -0.2962 0.7038 0.5000  plane waves:    3550
 k-point ** :  -0.3030 0.6970 0.5000  plane waves:    3558
 k-point ** :  -0.3098 0.6902 0.5000  plane waves:    3566
 k-point ** :  -0.3166 0.6834 0.5000  plane waves:    3558
 k-point ** :  -0.3234 0.6766 0.5000  plane waves:    3554
 k-point ** :  -0.3302 0.6698 0.5000  plane waves:    3558
 k-point ** :  -0.3370 0.6630 0.5000  plane waves:    3558
 k-point ** :  -0.3438 0.6562 0.5000  plane waves:    3566
 k-point ** :  -0.3506 0.6494 0.5000  plane waves:    3566
 k-point ** :  -0.3574 0.6426 0.5000  plane waves:    3570
 k-point ** :  -0.3642 0.6358 0.5000  plane waves:    3570
[...]
     17       3.1570      2.00000
     18       3.1570      2.00000
     19       4.4248      2.00000
     20       4.4248      2.00000
     21       6.8208      0.00000
     22       6.8208      0.00000
     23       7.6969      0.00000
     24       7.6969      0.00000
     25       8.1700      0.00000
     26       8.1700      0.00000
     27      12.9169      0.00000
     28      12.9169      0.00000
     29      13.3686      0.00000
     30      13.3686      0.00000
     31      15.2839      0.00000
     32      15.2839      0.00000
     33      16.6277      0.00000
     34      16.6277      0.00000
     35      18.7187      0.00000
     36      18.7187      0.00000
     37      20.9423      0.00000
     38      20.9423      0.00000
     39      21.7596      0.00000
     40      21.7596      0.00000
     41      21.7881      0.00000
     42      21.7881      0.00000
     43      22.5579      0.00000
     44      22.5579      0.00000
     45      23.6487      0.00000
     46      23.6487      0.00000
     47      23.9891      0.00000
     48      23.9891      0.00000

 k-point   388 :      -0.4259    0.4259    0.5000
  band No.  band energies     occupation 
      1     -15.5702      2.00000
      2     -15.5702      2.00000
      3     -15.5324      2.00000
      4     -15.5324      2.00000
      5     -15.4311      2.00000
      6     -15.4311      2.00000
      7     -15.3549      2.00000
      8     -15.3549      2.00000
      9     -15.3431      2.00000
     10     -15.3431      2.00000
     11      -7.9386      2.00000
     12      -7.9386      2.00000
     13      -2.1303      2.00000
     14      -2.1303      2.00000
     15       2.9486      2.00000
     16       2.9486      2.00000
     17       3.2255      2.00000
     18       3.2255      2.00000
     19       4.3966      2.00000
     20       4.3966      2.00000
     21       6.8180      0.00000
     22       6.8180      0.00000
     23       7.7135      0.00000
     24       7.7135      0.00000
     25       8.1334      0.00000
     26       8.1334      0.00000
     27      12.8614      0.00000
     28      12.8614      0.00000
     29      13.3212      0.00000
     30      13.3212      0.00000
     31      15.3008      0.00000
     32      15.3008      0.00000
     33      16.6163      0.00000
     34      16.6163      0.00000
     35      18.8396      0.00000
     36      18.8396      0.00000
     37      21.0841      0.00000
     38      21.0841      0.00000
     39      21.7305      0.00000
     40      21.7305      0.00000
     41      21.7701      0.00000
     42      21.7701      0.00000
     43      22.6483      0.00000
     44      22.6483      0.00000
     45      23.6596      0.00000
     46      23.6596      0.00000
     47      23.9086      0.00000
     48      23.9086      0.00000

 k-point   389 :      -0.4444    0.4444    0.5000
  band No.  band energies     occupation 
      1     -15.5703      2.00000
      2     -15.5703      2.00000
      3     -15.5323      2.00000
      4     -15.5323      2.00000
      5     -15.4310      2.00000
      6     -15.4310      2.00000
      7     -15.3549      2.00000
      8     -15.3549      2.00000
      9     -15.3431      2.00000
     10     -15.3431      2.00000
     11      -7.9379      2.00000
     12      -7.9379      2.00000
     13      -2.1409      2.00000
     14      -2.1409      2.00000
     15       2.9464      2.00000
     16       2.9464      2.00000
     17       3.2827      2.00000
     18       3.2827      2.00000
     19       4.3721      2.00000
     20       4.3721      2.00000
     21       6.8134      0.00000
     22       6.8134      0.00000
     23       7.7267      0.00000
     24       7.7267      0.00000
     25       8.1067      0.00000
     26       8.1067      0.00000
     27      12.8175      0.00000
     28      12.8175      0.00000
     29      13.2840      0.00000
     30      13.2840      0.00000
     31      15.3147      0.00000
     32      15.3147      0.00000
     33      16.6053      0.00000
     34      16.6053      0.00000
     35      18.9443      0.00000
     36      18.9443      0.00000
     37      21.1980      0.00000
     38      21.1980      0.00000
     39      21.6672      0.00000
     40      21.6672      0.00000
     41      21.7866      0.00000
     42      21.7866      0.00000
     43      22.7235      0.00000
     44      22.7235      0.00000
     45      23.6822      0.00000
     46      23.6822      0.00000
     47      23.8423      0.00000
     48      23.8423      0.00000

 k-point   390 :      -0.4630    0.4630    0.5000
  band No.  band energies     occupation 
      1     -15.5703      2.00000
      2     -15.5703      2.00000
      3     -15.5322      2.00000
      4     -15.5322      2.00000
      5     -15.4310      2.00000
      6     -15.4310      2.00000
      7     -15.3549      2.00000
      8     -15.3549      2.00000
      9     -15.3431      2.00000
     10     -15.3431      2.00000
     11      -7.9374      2.00000
     12      -7.9374      2.00000
     13      -2.1486      2.00000
     14      -2.1486      2.00000
     15       2.9448      2.00000
     16       2.9448      2.00000
     17       3.3260      2.00000
     18       3.3260      2.00000
     19       4.3529      2.00000
     20       4.3529      2.00000
     21       6.8085      0.00000
     22       6.8085      0.00000
     23       7.7363      0.00000
     24       7.7363      0.00000
     25       8.0887      0.00000
     26       8.0887      0.00000
     27      12.7859      0.00000
     28      12.7859      0.00000
     29      13.2572      0.00000
     30      13.2572      0.00000
     31      15.3251      0.00000
     32      15.3251      0.00000
     33      16.5963      0.00000
     34      16.5963      0.00000
     35      19.0261      0.00000
     36      19.0261      0.00000
     37      21.2794      0.00000
     38      21.2794      0.00000
     39      21.6118      0.00000
     40      21.6118      0.00000
     41      21.8066      0.00000
     42      21.8066      0.00000
     43      22.7770      0.00000
     44      22.7770      0.00000
     45      23.7088      0.00000
     46      23.7088      0.00000
     47      23.7854      0.00000
     48      23.7854      0.00000

 k-point   391 :      -0.4815    0.4815    0.5000
  band No.  band energies     occupation 
      1     -15.5704      2.00000
      2     -15.5704      2.00000
      3     -15.5321      2.00000
      4     -15.5321      2.00000
      5     -15.4310      2.00000
      6     -15.4310      2.00000
      7     -15.3550      2.00000
      8     -15.3550      2.00000
      9     -15.3431      2.00000
     10     -15.3431      2.00000
     11      -7.9370      2.00000
     12      -7.9370      2.00000
     13      -2.1532      2.00000
     14      -2.1532      2.00000
     15       2.9438      2.00000
     16       2.9438      2.00000
     17       3.3531      2.00000
     18       3.3531      2.00000
     19       4.3405      2.00000
     20       4.3405      2.00000
     21       6.8049      0.00000
     22       6.8049      0.00000
     23       7.7422      0.00000
     24       7.7422      0.00000
     25       8.0783      0.00000
     26       8.0783      0.00000
     27      12.7667      0.00000
     28      12.7667      0.00000
     29      13.2411      0.00000
     30      13.2411      0.00000
     31      15.3315      0.00000
     32      15.3315      0.00000
     33      16.5904      0.00000
     34      16.5904      0.00000
     35      19.0783      0.00000
     36      19.0783      0.00000
     37      21.3269      0.00000
     38      21.3269      0.00000
     39      21.5742      0.00000
     40      21.5742      0.00000
     41      21.8240      0.00000
     42      21.8240      0.00000
     43      22.8082      0.00000
     44      22.8082      0.00000
     45      23.7299      0.00000
     46      23.7299      0.00000
     47      23.7466      0.00000
     48      23.7466      0.00000

 k-point   392 :      -0.5000    0.5000    0.5000
  band No.  band energies     occupation 
      1     -15.5704      2.00000
      2     -15.5704      2.00000
      3     -15.5321      2.00000
      4     -15.5321      2.00000
      5     -15.4310      2.00000
      6     -15.4310      2.00000
      7     -15.3550      2.00000
      8     -15.3550      2.00000
      9     -15.3431      2.00000
     10     -15.3431      2.00000
     11      -7.9369      2.00000
     12      -7.9369      2.00000
     13      -2.1547      2.00000
     14      -2.1547      2.00000
     15       2.9435      2.00000
     16       2.9435      2.00000
     17       3.3624      2.00000
     18       3.3624      2.00000
     19       4.3362      2.00000
     20       4.3362      2.00000
     21       6.8036      0.00000
     22       6.8036      0.00000
     23       7.7441      0.00000
     24       7.7441      0.00000
     25       8.0749      0.00000
     26       8.0749      0.00000
     27      12.7603      0.00000
     28      12.7603      0.00000
     29      13.2357      0.00000
     30      13.2357      0.00000
     31      15.3337      0.00000
     32      15.3337      0.00000
     33      16.5884      0.00000
     34      16.5884      0.00000
     35      19.0964      0.00000
     36      19.0964      0.00000
     37      21.3424      0.00000
     38      21.3424      0.00000
     39      21.5609      0.00000
     40      21.5609      0.00000
     41      21.8309      0.00000
     42      21.8309      0.00000
     43      22.8184      0.00000
     44      22.8184      0.00000
     45      23.7328      0.00000
     46      23.7328      0.00000
     47      23.7380      0.00000
     48      23.7380      0.00000


--------------------------------------------------------------------------------------------------------


 soft charge-density along one line, spin component           1
         0         1         2         3         4         5         6         7         8         9
 total charge-density along one line

 pseudopotential strength for first ion, spin component:           1
-17.021  -0.000   0.000   0.000  -0.000   3.215   0.000  -0.000
 -0.000 -17.142   0.000  -0.000   0.000   0.000   3.275  -0.000
  0.000   0.000 -17.134   0.000  -0.048  -0.000  -0.000   3.270
  0.000  -0.000   0.000 -17.063   0.000  -0.000   0.000  -0.000
 -0.000   0.000  -0.048   0.000 -17.022   0.000  -0.000   0.024
  3.215   0.000  -0.000  -0.000   0.000   4.313   0.000   0.000
  0.000   3.275  -0.000   0.000  -0.000   0.000   4.301   0.000
 -0.000  -0.000   3.270  -0.000   0.024   0.000   0.000   4.300
 -0.000   0.000  -0.000   3.235  -0.000   0.000  -0.000  -0.000
  0.000  -0.000   0.024  -0.000   3.216   0.000  -0.000  -0.003
 -0.000  -0.000  -0.001  -0.000  -0.001   0.000   0.000   0.019
  0.000   0.000   0.008   0.000  -0.005  -0.000  -0.000  -0.030
  0.000  -0.000  -0.004   0.000  -0.007  -0.000  -0.000   0.002
  0.000   0.007  -0.000   0.000  -0.000  -0.000  -0.003  -0.000
  0.007   0.000  -0.000  -0.000   0.000  -0.005  -0.000   0.000
  0.000  -0.000  -0.007   0.000  -0.011  -0.000  -0.000   0.004
  0.000   0.011  -0.000   0.000  -0.000  -0.000  -0.004  -0.000
  0.012   0.000  -0.000  -0.000   0.000  -0.008  -0.000   0.000
 total augmentation occupancy for first ion, spin component:           1
  2.000   0.000   0.000   0.000   0.000   0.000   0.000   0.000   0.000   0.000   0.000   0.000   0.000   0.000   0.000   0.000
  0.000   2.000   0.000   0.000   0.000   0.000   0.000   0.000   0.000   0.000   0.000   0.000   0.000   0.000   0.000   0.000
  0.000   0.000   2.000   0.000   0.000   0.000   0.000   0.000   0.000   0.000   0.000   0.000   0.000   0.000   0.000   0.000
  0.000   0.000   0.000   2.000   0.000   0.000   0.000   0.000   0.000   0.000   0.000   0.000   0.000   0.000   0.000   0.000
  0.000   0.000   0.000   0.000   2.000   0.000   0.000   0.000   0.000   0.000   0.000   0.000   0.000   0.000   0.000   0.000
  0.000   0.000   0.000   0.000   0.000   0.000   0.000   0.000   0.000   0.000   0.000   0.000   0.000   0.000   0.000   0.000
  0.000   0.000   0.000   0.000   0.000   0.000   0.000   0.000   0.000   0.000   0.000   0.000   0.000   0.000   0.000   0.000
  0.000   0.000   0.000   0.000   0.000   0.000   0.000   0.000   0.000   0.000   0.000   0.000   0.000   0.000   0.000   0.000
  0.000   0.000   0.000   0.000   0.000   0.000   0.000   0.000   0.000   0.000   0.000   0.000   0.000   0.000   0.000   0.000
  0.000   0.000   0.000   0.000   0.000   0.000   0.000   0.000   0.000   0.000   0.000   0.000   0.000   0.000   0.000   0.000
  0.000   0.000   0.000   0.000   0.000   0.000   0.000   0.000   0.000   0.000   2.000   0.000   0.000   0.000   0.000   0.000
  0.000   0.000   0.000   0.000   0.000   0.000   0.000   0.000   0.000   0.000   0.000   0.000   0.000   0.000   0.000   0.000
  0.000   0.000   0.000   0.000   0.000   0.000   0.000   0.000   0.000   0.000   0.000   0.000   0.667   0.000   0.000   0.000
  0.000   0.000   0.000   0.000   0.000   0.000   0.000   0.000   0.000   0.000   0.000   0.000   0.000   0.667   0.000   0.000
  0.000   0.000   0.000   0.000   0.000   0.000   0.000   0.000   0.000   0.000   0.000   0.000   0.000   0.000   0.667   0.000
  0.000   0.000   0.000   0.000   0.000   0.000   0.000   0.000   0.000   0.000   0.000   0.000   0.000   0.000   0.000   0.000
  0.000   0.000   0.000   0.000   0.000   0.000   0.000   0.000   0.000   0.000   0.000   0.000   0.000   0.000   0.000   0.000
  0.000   0.000   0.000   0.000   0.000   0.000   0.000   0.000   0.000   0.000   0.000   0.000   0.000   0.000   0.000   0.000


------------------------ aborting loop because EDIFF is reached ----------------------------------------


    CHARGE:  cpu time    0.9046: real time    0.9096
    FORLOC:  cpu time    0.0032: real time    0.0032
    FORNL :  cpu time    6.0055: real time    6.0076
    STRESS:  cpu time   11.9921: real time   11.9954
    FORCOR:  cpu time    0.0511: real time    0.0512
    FORHAR:  cpu time    0.0143: real time    0.0144
    OFIELD:  cpu time    0.0003: real time    0.0003

 ---------------------------------------------------------------------------------------------

         DFTD3 V3.0 Rev 1        
 IVDW         = 11
 DF pbe       
 parameters
 VDW_S6       =    1.0000
 VDW_S8       =    0.7220
 VDW_SR       =    1.2170
 rs18     =    1.0000
 alpha6   =   14.0000
 alpha8   =   16.0000
 k1-k3    =   16.0000    1.3333   -4.0000
 VDW_RADIUS   =   50.2022 A
 VDW_CNRADIUS =   21.1671 A
 Edisp (eV)   -0.88178

 E6    (eV) :    -0.3693
 E8    (eV) :    -0.5125
 % E8        : 58.12
    FORVDW:  cpu time    0.0311: real time    0.0418

  FORCE on cell =-STRESS in cart. coord.  units (eV):
  Direction    XX          YY          ZZ          XY          YZ          ZX
  --------------------------------------------------------------------------------------
  Alpha Z   103.08740   103.08740   103.08740
  Ewald   -1046.36165  -974.07699  -967.10045    -0.00000     0.00000     0.00000
  Hartree   348.65119   408.72956   415.73688    -0.00000    -0.00000    -0.00000
  E(xc)    -185.12779  -185.56398  -185.03177    -0.00000    -0.00000    -0.00000
  Local    -111.98293  -253.69524  -258.73780    -0.00000     0.00000    -0.00000
  n-local   208.19144   215.57908   209.15975    -0.18926    -0.00001    -0.04646
  augment   353.99808   347.14999   347.11439     0.00000     0.00000     0.00000
  Kinetic   336.16476   333.41769   336.20161     0.88584    -0.00002     0.39278
  Fock        0.00000     0.00000     0.00000     0.00000     0.00000     0.00000
  vdW        -0.67415    -0.61271    -0.78886    -0.00000     0.00000     0.00000
  -------------------------------------------------------------------------------------
  Total       5.94634    -5.98520    -0.35885    -0.00000    -0.00000     0.00000
  in kB      88.88955   -89.47034    -5.36428    -0.00000    -0.00000     0.00000
  external pressure =       -1.98 kB  Pullay stress =        0.00 kB


 VOLUME and BASIS-vectors are now :
 -----------------------------------------------------------------------------
  energy-cutoff  :      600.00
  volume of cell :      107.18
      direct lattice vectors                 reciprocal lattice vectors
     2.135524005 -5.908169380 -0.000000000     0.234134573 -0.084628583  0.000000000
     2.135524005  5.908169380  0.000000000     0.234134573  0.084628583 -0.000000000
     0.000000000  0.000000000  4.247392980    -0.000000000 -0.000000000  0.235438540

  length of vectors
     6.282270943  6.282270943  4.247392980     0.248959826  0.248959826  0.235438540


 FORCES acting on ions
    electron-ion (+dipol)            ewald-force                    non-local-force                 convergence-correction
 -----------------------------------------------------------------------------------------------
   0.695E-12 0.472E+02 0.187E-10   0.149E-12 -.588E+02 -.981E-14   0.147E-14 0.963E+01 0.570E-15   0.185E-11 0.204E+01 -.967E-11
   0.370E-12 -.472E+02 -.137E-10   -.159E-12 0.588E+02 0.120E-13   -.144E-14 -.963E+01 -.570E-15   -.165E-11 -.204E+01 0.894E-11
   0.703E-11 -.559E+02 -.552E-13   0.180E-12 0.570E+02 0.510E-14   -.156E-15 -.106E+01 -.631E-16   0.425E-12 -.161E+00 -.101E-11
   -.540E-11 0.559E+02 -.161E-11   -.174E-12 -.570E+02 -.688E-14   0.153E-15 0.106E+01 0.631E-16   -.646E-12 0.161E+00 -.258E-12
 -----------------------------------------------------------------------------------------------
   0.270E-11 -.212E-11 0.332E-11   -.355E-14 0.000E+00 0.409E-15   0.243E-16 0.000E+00 -.741E-21   -.110E-13 0.398E-11 -.199E-11


 POSITION                                       TOTAL-FORCE (eV/Angst)
 -----------------------------------------------------------------------------------
      2.13552      1.47558      3.18554         0.000000      0.068734      0.000000
      2.13552     -1.47558      1.06185        -0.000000     -0.068734     -0.000000
      2.13552      4.21350      3.18554        -0.000000     -0.105863     -0.000000
      2.13552     -4.21350      1.06185         0.000000      0.105863      0.000000
 -----------------------------------------------------------------------------------
    total drift:                                0.000000      0.000000      0.000000


--------------------------------------------------------------------------------------------------------



  FREE ENERGIE OF THE ION-ELECTRON SYSTEM (eV)
  ---------------------------------------------------
  free  energy   TOTEN  =       -17.12894449 eV

  energy  without entropy=      -17.12894449  energy(sigma->0) =      -17.12894449



--------------------------------------------------------------------------------------------------------


    POTLOK:  cpu time    0.1295: real time    0.1297


--------------------------------------------------------------------------------------------------------


     LOOP+:  cpu time   55.2221: real time   55.4704
    4ORBIT:  cpu time    0.0000: real time    0.0000

 total amount of memory used by VASP MPI-rank0   674312. kBytes
=======================================================================

   base      :      30000. kBytes
   nonl-proj :     205135. kBytes
   fftplans  :      14720. kBytes
   grid      :       7165. kBytes
   one-center:         31. kBytes
   wavefun   :     417261. kBytes

  
  
 General timing and accounting informations for this job:
 ========================================================
  
                  Total CPU time used (sec):       59.949
                            User time (sec):       57.942
                          System time (sec):        2.006
                         Elapsed time (sec):       60.558
  
                   Maximum memory used (kb):      820504.
                   Average memory used (kb):           0.
  
                          Minor page faults:       174702
                          Major page faults:            0
                 Voluntary context switches:         5088
