<?xml version="1.0" encoding="ISO-8859-1"?>
<modeling>
 <generator>
  <i name="program" type="string">vasp </i>
  <i name="version" type="string">5.4.4.18Apr17-6-g9f103f2a35  </i>
  <i name="subversion" type="string">(build Mar 20 2018 18:01:20) complex            parallel </i>
  <i name="platform" type="string">LinuxGNU </i>
  <i name="date" type="string">2020 07 14 </i>
  <i name="time" type="string">12:39:19 </i>
 </generator>
 <incar>
  <i type="string" name="SYSTEM"> SnSe</i>
  <i type="int" name="ISTART">     1</i>
  <i type="string" name="PREC">accurate</i>
  <i type="string" name="ALGO"> A</i>
  <i type="logical" name="ADDGRID"> T  </i>
  <i type="int" name="ICHARG">    11</i>
  <i name="EDIFF">      0.00000010</i>
  <i name="ENCUT">    600.00000000</i>
  <i type="int" name="NBANDS">    48</i>
  <i type="logical" name="LREAL"> F  </i>
  <i type="logical" name="LPLANE"> T  </i>
  <i type="int" name="ISMEAR">     0</i>
  <i name="SIGMA">      0.01000000</i>
  <i type="int" name="LMAXMIX">     4</i>
  <i type="logical" name="LWAVE"> F  </i>
  <i type="logical" name="LCHARG"> F  </i>
  <v type="int" name="KPOINT_BSE">    -1     0     0     0</v>
 </incar>
 <structure name="primitive_cell" >
  <crystal>
   <varray name="basis" >
    <v>       2.13552400      -5.90816938      -0.00000000 </v>
    <v>       2.13552401       5.90816938       0.00000000 </v>
    <v>       0.00000000       0.00000000       4.24739298 </v>
   </varray>
   <i name="volume">    107.17903332 </i>
   <varray name="rec_basis" >
    <v>       0.23413457      -0.08462858       0.00000000 </v>
    <v>       0.23413457       0.08462858      -0.00000000 </v>
    <v>      -0.00000000      -0.00000000       0.23543854 </v>
   </varray>
  </crystal>
  <varray name="positions" >
   <v>       0.37512364      -0.37512364      -0.25000000 </v>
   <v>       0.14341737      -0.14341737      -0.25000000 </v>
   <v>      -0.14341737       0.14341737       0.25000000 </v>
   <v>      -0.37512364       0.37512364       0.25000000 </v>
  </varray>
 </structure>
 <varray name="primitive_index" >
  <v type="int" >        1 </v>
  <v type="int" >        3 </v>
  <v type="int" >        4 </v>
  <v type="int" >        2 </v>
 </varray>
 <kpoints>
  <varray name="kpointlist" >
   <v>       0.00000000       0.00000000       0.00000000 </v>
   <v>       0.00673005       0.00673005       0.00000000 </v>
   <v>       0.01346010       0.01346010       0.00000000 </v>
   <v>       0.02019014       0.02019014       0.00000000 </v>
   <v>       0.02692019       0.02692019       0.00000000 </v>
   <v>       0.03365024       0.03365024       0.00000000 </v>
   <v>       0.04038029       0.04038029       0.00000000 </v>
   <v>       0.04711034       0.04711034       0.00000000 </v>
   <v>       0.05384038       0.05384038       0.00000000 </v>
   <v>       0.06057043       0.06057043       0.00000000 </v>
   <v>       0.06730048       0.06730048       0.00000000 </v>
   <v>       0.07403053       0.07403053       0.00000000 </v>
   <v>       0.08076058       0.08076058       0.00000000 </v>
   <v>       0.08749063       0.08749063       0.00000000 </v>
   <v>       0.09422067       0.09422067       0.00000000 </v>
   <v>       0.10095072       0.10095072       0.00000000 </v>
   <v>       0.10768077       0.10768077       0.00000000 </v>
   <v>       0.11441082       0.11441082       0.00000000 </v>
   <v>       0.12114087       0.12114087       0.00000000 </v>
   <v>       0.12787091       0.12787091       0.00000000 </v>
   <v>       0.13460096       0.13460096       0.00000000 </v>
   <v>       0.14133101       0.14133101       0.00000000 </v>
   <v>       0.14806106       0.14806106       0.00000000 </v>
   <v>       0.15479111       0.15479111       0.00000000 </v>
   <v>       0.16152115       0.16152115       0.00000000 </v>
   <v>       0.16825120       0.16825120       0.00000000 </v>
   <v>       0.17498125       0.17498125       0.00000000 </v>
   <v>       0.18171130       0.18171130       0.00000000 </v>
   <v>       0.18844135       0.18844135       0.00000000 </v>
   <v>       0.19517140       0.19517140       0.00000000 </v>
   <v>       0.20190144       0.20190144       0.00000000 </v>
   <v>       0.20863149       0.20863149       0.00000000 </v>
   <v>       0.21536154       0.21536154       0.00000000 </v>
   <v>       0.22209159       0.22209159       0.00000000 </v>
   <v>       0.22882164       0.22882164       0.00000000 </v>
   <v>       0.23555168       0.23555168       0.00000000 </v>
   <v>       0.24228173       0.24228173       0.00000000 </v>
   <v>       0.24901178       0.24901178       0.00000000 </v>
   <v>       0.25574183       0.25574183       0.00000000 </v>
   <v>       0.26247188       0.26247188       0.00000000 </v>
   <v>       0.26920192       0.26920192       0.00000000 </v>
   <v>       0.27593197       0.27593197       0.00000000 </v>
   <v>       0.28266202       0.28266202       0.00000000 </v>
   <v>       0.28266202       0.28266202       0.00000000 </v>
   <v>       0.26381789       0.29715122       0.00000000 </v>
   <v>       0.24497375       0.31164042       0.00000000 </v>
   <v>       0.22612962       0.32612962       0.00000000 </v>
   <v>       0.20728548       0.34061882       0.00000000 </v>
   <v>       0.18844135       0.35510801       0.00000000 </v>
   <v>       0.16959721       0.36959721       0.00000000 </v>
   <v>       0.15075308       0.38408641       0.00000000 </v>
   <v>       0.13190894       0.39857561       0.00000000 </v>
   <v>       0.11306481       0.41306481       0.00000000 </v>
   <v>       0.09422067       0.42755401       0.00000000 </v>
   <v>       0.07537654       0.44204321       0.00000000 </v>
   <v>       0.05653240       0.45653240       0.00000000 </v>
   <v>       0.03768827       0.47102160       0.00000000 </v>
   <v>       0.01884413       0.48551080       0.00000000 </v>
   <v>      -0.00000000       0.50000000       0.00000000 </v>
   <v>      -0.00000000       0.50000000       0.00000000 </v>
   <v>      -0.00000000       0.50000000       0.01351351 </v>
   <v>      -0.00000000       0.50000000       0.02702703 </v>
   <v>      -0.00000000       0.50000000       0.04054054 </v>
   <v>      -0.00000000       0.50000000       0.05405405 </v>
   <v>      -0.00000000       0.50000000       0.06756757 </v>
   <v>      -0.00000000       0.50000000       0.08108108 </v>
   <v>      -0.00000000       0.50000000       0.09459459 </v>
   <v>      -0.00000000       0.50000000       0.10810811 </v>
   <v>      -0.00000000       0.50000000       0.12162162 </v>
   <v>      -0.00000000       0.50000000       0.13513514 </v>
   <v>      -0.00000000       0.50000000       0.14864865 </v>
   <v>      -0.00000000       0.50000000       0.16216216 </v>
   <v>      -0.00000000       0.50000000       0.17567568 </v>
   <v>      -0.00000000       0.50000000       0.18918919 </v>
   <v>      -0.00000000       0.50000000       0.20270270 </v>
   <v>      -0.00000000       0.50000000       0.21621622 </v>
   <v>      -0.00000000       0.50000000       0.22972973 </v>
   <v>      -0.00000000       0.50000000       0.24324324 </v>
   <v>       0.00000000       0.50000000       0.25675676 </v>
   <v>       0.00000000       0.50000000       0.27027027 </v>
   <v>       0.00000000       0.50000000       0.28378378 </v>
   <v>       0.00000000       0.50000000       0.29729730 </v>
   <v>       0.00000000       0.50000000       0.31081081 </v>
   <v>       0.00000000       0.50000000       0.32432432 </v>
   <v>       0.00000000       0.50000000       0.33783784 </v>
   <v>       0.00000000       0.50000000       0.35135135 </v>
   <v>       0.00000000       0.50000000       0.36486486 </v>
   <v>       0.00000000       0.50000000       0.37837838 </v>
   <v>       0.00000000       0.50000000       0.39189189 </v>
   <v>       0.00000000       0.50000000       0.40540541 </v>
   <v>       0.00000000       0.50000000       0.41891892 </v>
   <v>       0.00000000       0.50000000       0.43243243 </v>
   <v>       0.00000000       0.50000000       0.44594595 </v>
   <v>       0.00000000       0.50000000       0.45945946 </v>
   <v>       0.00000000       0.50000000       0.47297297 </v>
   <v>       0.00000000       0.50000000       0.48648649 </v>
   <v>       0.00000000       0.50000000       0.50000000 </v>
   <v>       0.00000000       0.50000000       0.50000000 </v>
   <v>       0.01884413       0.48551080       0.50000000 </v>
   <v>       0.03768827       0.47102160       0.50000000 </v>
   <v>       0.05653240       0.45653240       0.50000000 </v>
   <v>       0.07537654       0.44204321       0.50000000 </v>
   <v>       0.09422067       0.42755401       0.50000000 </v>
   <v>       0.11306481       0.41306481       0.50000000 </v>
   <v>       0.13190894       0.39857561       0.50000000 </v>
   <v>       0.15075308       0.38408641       0.50000000 </v>
   <v>       0.16959721       0.36959721       0.50000000 </v>
   <v>       0.18844135       0.35510801       0.50000000 </v>
   <v>       0.20728548       0.34061882       0.50000000 </v>
   <v>       0.22612962       0.32612962       0.50000000 </v>
   <v>       0.24497375       0.31164042       0.50000000 </v>
   <v>       0.26381789       0.29715122       0.50000000 </v>
   <v>       0.28266202       0.28266202       0.50000000 </v>
   <v>       0.28266202       0.28266202       0.50000000 </v>
   <v>       0.27593197       0.27593197       0.50000000 </v>
   <v>       0.26920192       0.26920192       0.50000000 </v>
   <v>       0.26247188       0.26247188       0.50000000 </v>
   <v>       0.25574183       0.25574183       0.50000000 </v>
   <v>       0.24901178       0.24901178       0.50000000 </v>
   <v>       0.24228173       0.24228173       0.50000000 </v>
   <v>       0.23555168       0.23555168       0.50000000 </v>
   <v>       0.22882164       0.22882164       0.50000000 </v>
   <v>       0.22209159       0.22209159       0.50000000 </v>
   <v>       0.21536154       0.21536154       0.50000000 </v>
   <v>       0.20863149       0.20863149       0.50000000 </v>
   <v>       0.20190144       0.20190144       0.50000000 </v>
   <v>       0.19517140       0.19517140       0.50000000 </v>
   <v>       0.18844135       0.18844135       0.50000000 </v>
   <v>       0.18171130       0.18171130       0.50000000 </v>
   <v>       0.17498125       0.17498125       0.50000000 </v>
   <v>       0.16825120       0.16825120       0.50000000 </v>
   <v>       0.16152115       0.16152115       0.50000000 </v>
   <v>       0.15479111       0.15479111       0.50000000 </v>
   <v>       0.14806106       0.14806106       0.50000000 </v>
   <v>       0.14133101       0.14133101       0.50000000 </v>
   <v>       0.13460096       0.13460096       0.50000000 </v>
   <v>       0.12787091       0.12787091       0.50000000 </v>
   <v>       0.12114087       0.12114087       0.50000000 </v>
   <v>       0.11441082       0.11441082       0.50000000 </v>
   <v>       0.10768077       0.10768077       0.50000000 </v>
   <v>       0.10095072       0.10095072       0.50000000 </v>
   <v>       0.09422067       0.09422067       0.50000000 </v>
   <v>       0.08749063       0.08749063       0.50000000 </v>
   <v>       0.08076058       0.08076058       0.50000000 </v>
   <v>       0.07403053       0.07403053       0.50000000 </v>
   <v>       0.06730048       0.06730048       0.50000000 </v>
   <v>       0.06057043       0.06057043       0.50000000 </v>
   <v>       0.05384038       0.05384038       0.50000000 </v>
   <v>       0.04711034       0.04711034       0.50000000 </v>
   <v>       0.04038029       0.04038029       0.50000000 </v>
   <v>       0.03365024       0.03365024       0.50000000 </v>
   <v>       0.02692019       0.02692019       0.50000000 </v>
   <v>       0.02019014       0.02019014       0.50000000 </v>
   <v>       0.01346010       0.01346010       0.50000000 </v>
   <v>       0.00673005       0.00673005       0.50000000 </v>
   <v>       0.00000000       0.00000000       0.50000000 </v>
   <v>      -0.00000000       0.00000000       0.50000000 </v>
   <v>      -0.00000000       0.00000000       0.48648649 </v>
   <v>       0.00000000      -0.00000000       0.47297297 </v>
   <v>      -0.00000000       0.00000000       0.45945946 </v>
   <v>      -0.00000000       0.00000000       0.44594595 </v>
   <v>      -0.00000000       0.00000000       0.43243243 </v>
   <v>      -0.00000000       0.00000000       0.41891892 </v>
   <v>       0.00000000      -0.00000000       0.40540541 </v>
   <v>      -0.00000000       0.00000000       0.39189189 </v>
   <v>       0.00000000      -0.00000000       0.37837838 </v>
   <v>       0.00000000       0.00000000       0.36486486 </v>
   <v>       0.00000000      -0.00000000       0.35135135 </v>
   <v>       0.00000000      -0.00000000       0.33783784 </v>
   <v>      -0.00000000       0.00000000       0.32432432 </v>
   <v>      -0.00000000      -0.00000000       0.31081081 </v>
   <v>      -0.00000000      -0.00000000       0.29729730 </v>
   <v>       0.00000000       0.00000000       0.28378378 </v>
   <v>       0.00000000      -0.00000000       0.27027027 </v>
   <v>      -0.00000000       0.00000000       0.25675676 </v>
   <v>       0.00000000      -0.00000000       0.24324324 </v>
   <v>      -0.00000000       0.00000000       0.22972973 </v>
   <v>       0.00000000      -0.00000000       0.21621622 </v>
   <v>       0.00000000       0.00000000       0.20270270 </v>
   <v>      -0.00000000      -0.00000000       0.18918919 </v>
   <v>       0.00000000      -0.00000000       0.17567568 </v>
   <v>       0.00000000      -0.00000000       0.16216216 </v>
   <v>      -0.00000000       0.00000000       0.14864865 </v>
   <v>      -0.00000000      -0.00000000       0.13513514 </v>
   <v>       0.00000000      -0.00000000       0.12162162 </v>
   <v>       0.00000000      -0.00000000       0.10810811 </v>
   <v>       0.00000000       0.00000000       0.09459459 </v>
   <v>      -0.00000000      -0.00000000       0.08108108 </v>
   <v>      -0.00000000       0.00000000       0.06756757 </v>
   <v>      -0.00000000       0.00000000       0.05405405 </v>
   <v>       0.00000000      -0.00000000       0.04054054 </v>
   <v>      -0.00000000       0.00000000       0.02702703 </v>
   <v>      -0.00000000       0.00000000       0.01351351 </v>
   <v>       0.00000000       0.00000000       0.00000000 </v>
   <v>       0.00000000       0.00000000       0.00000000 </v>
   <v>      -0.01851852       0.01851852       0.00000000 </v>
   <v>      -0.03703704       0.03703704       0.00000000 </v>
   <v>      -0.05555556       0.05555556       0.00000000 </v>
   <v>      -0.07407407       0.07407407       0.00000000 </v>
   <v>      -0.09259259       0.09259259       0.00000000 </v>
   <v>      -0.11111111       0.11111111       0.00000000 </v>
   <v>      -0.12962963       0.12962963       0.00000000 </v>
   <v>      -0.14814815       0.14814815       0.00000000 </v>
   <v>      -0.16666667       0.16666667       0.00000000 </v>
   <v>      -0.18518519       0.18518519       0.00000000 </v>
   <v>      -0.20370370       0.20370370       0.00000000 </v>
   <v>      -0.22222222       0.22222222       0.00000000 </v>
   <v>      -0.24074074       0.24074074       0.00000000 </v>
   <v>      -0.25925926       0.25925926       0.00000000 </v>
   <v>      -0.27777778       0.27777778       0.00000000 </v>
   <v>      -0.29629630       0.29629630       0.00000000 </v>
   <v>      -0.31481481       0.31481481       0.00000000 </v>
   <v>      -0.33333333       0.33333333       0.00000000 </v>
   <v>      -0.35185185       0.35185185       0.00000000 </v>
   <v>      -0.37037037       0.37037037       0.00000000 </v>
   <v>      -0.38888889       0.38888889       0.00000000 </v>
   <v>      -0.40740741       0.40740741       0.00000000 </v>
   <v>      -0.42592593       0.42592593       0.00000000 </v>
   <v>      -0.44444444       0.44444444       0.00000000 </v>
   <v>      -0.46296296       0.46296296       0.00000000 </v>
   <v>      -0.48148148       0.48148148       0.00000000 </v>
   <v>      -0.50000000       0.50000000       0.00000000 </v>
   <v>      -0.50000000       0.50000000       0.00000000 </v>
   <v>      -0.49320819       0.50679181       0.00000000 </v>
   <v>      -0.48641638       0.51358362       0.00000000 </v>
   <v>      -0.47962456       0.52037544       0.00000000 </v>
   <v>      -0.47283275       0.52716725       0.00000000 </v>
   <v>      -0.46604094       0.53395906       0.00000000 </v>
   <v>      -0.45924913       0.54075087       0.00000000 </v>
   <v>      -0.45245732       0.54754268       0.00000000 </v>
   <v>      -0.44566551       0.55433449       0.00000000 </v>
   <v>      -0.43887369       0.56112631       0.00000000 </v>
   <v>      -0.43208188       0.56791812       0.00000000 </v>
   <v>      -0.42529007       0.57470993       0.00000000 </v>
   <v>      -0.41849826       0.58150174       0.00000000 </v>
   <v>      -0.41170645       0.58829355       0.00000000 </v>
   <v>      -0.40491463       0.59508537       0.00000000 </v>
   <v>      -0.39812282       0.60187718       0.00000000 </v>
   <v>      -0.39133101       0.60866899       0.00000000 </v>
   <v>      -0.38453920       0.61546080       0.00000000 </v>
   <v>      -0.37774739       0.62225261       0.00000000 </v>
   <v>      -0.37095557       0.62904443       0.00000000 </v>
   <v>      -0.36416376       0.63583624       0.00000000 </v>
   <v>      -0.35737195       0.64262805       0.00000000 </v>
   <v>      -0.35058014       0.64941986       0.00000000 </v>
   <v>      -0.34378833       0.65621167       0.00000000 </v>
   <v>      -0.33699652       0.66300348       0.00000000 </v>
   <v>      -0.33020470       0.66979530       0.00000000 </v>
   <v>      -0.32341289       0.67658711       0.00000000 </v>
   <v>      -0.31662108       0.68337892       0.00000000 </v>
   <v>      -0.30982927       0.69017073       0.00000000 </v>
   <v>      -0.30303746       0.69696254       0.00000000 </v>
   <v>      -0.29624564       0.70375436       0.00000000 </v>
   <v>      -0.28945383       0.71054617       0.00000000 </v>
   <v>      -0.28266202       0.71733798       0.00000000 </v>
   <v>      -0.28266202       0.71733798       0.00000000 </v>
   <v>      -0.28266202       0.71733798       0.01351351 </v>
   <v>      -0.28266202       0.71733798       0.02702703 </v>
   <v>      -0.28266202       0.71733798       0.04054054 </v>
   <v>      -0.28266202       0.71733798       0.05405405 </v>
   <v>      -0.28266202       0.71733798       0.06756757 </v>
   <v>      -0.28266202       0.71733798       0.08108108 </v>
   <v>      -0.28266202       0.71733798       0.09459459 </v>
   <v>      -0.28266202       0.71733798       0.10810811 </v>
   <v>      -0.28266202       0.71733798       0.12162162 </v>
   <v>      -0.28266202       0.71733798       0.13513514 </v>
   <v>      -0.28266202       0.71733798       0.14864865 </v>
   <v>      -0.28266202       0.71733798       0.16216216 </v>
   <v>      -0.28266202       0.71733798       0.17567568 </v>
   <v>      -0.28266202       0.71733798       0.18918919 </v>
   <v>      -0.28266202       0.71733798       0.20270270 </v>
   <v>      -0.28266202       0.71733798       0.21621622 </v>
   <v>      -0.28266202       0.71733798       0.22972973 </v>
   <v>      -0.28266202       0.71733798       0.24324324 </v>
   <v>      -0.28266202       0.71733798       0.25675676 </v>
   <v>      -0.28266202       0.71733798       0.27027027 </v>
   <v>      -0.28266202       0.71733798       0.28378378 </v>
   <v>      -0.28266202       0.71733798       0.29729730 </v>
   <v>      -0.28266202       0.71733798       0.31081081 </v>
   <v>      -0.28266202       0.71733798       0.32432432 </v>
   <v>      -0.28266202       0.71733798       0.33783784 </v>
   <v>      -0.28266202       0.71733798       0.35135135 </v>
   <v>      -0.28266202       0.71733798       0.36486486 </v>
   <v>      -0.28266202       0.71733798       0.37837838 </v>
   <v>      -0.28266202       0.71733798       0.39189189 </v>
   <v>      -0.28266202       0.71733798       0.40540541 </v>
   <v>      -0.28266202       0.71733798       0.41891892 </v>
   <v>      -0.28266202       0.71733798       0.43243243 </v>
   <v>      -0.28266202       0.71733798       0.44594595 </v>
   <v>      -0.28266202       0.71733798       0.45945946 </v>
   <v>      -0.28266202       0.71733798       0.47297297 </v>
   <v>      -0.28266202       0.71733798       0.48648649 </v>
   <v>      -0.28266202       0.71733798       0.50000000 </v>
   <v>      -0.28266202       0.71733798       0.50000000 </v>
   <v>      -0.28945383       0.71054617       0.50000000 </v>
   <v>      -0.29624564       0.70375436       0.50000000 </v>
   <v>      -0.30303746       0.69696254       0.50000000 </v>
   <v>      -0.30982927       0.69017073       0.50000000 </v>
   <v>      -0.31662108       0.68337892       0.50000000 </v>
   <v>      -0.32341289       0.67658711       0.50000000 </v>
   <v>      -0.33020470       0.66979530       0.50000000 </v>
   <v>      -0.33699652       0.66300348       0.50000000 </v>
   <v>      -0.34378833       0.65621167       0.50000000 </v>
   <v>      -0.35058014       0.64941986       0.50000000 </v>
   <v>      -0.35737195       0.64262805       0.50000000 </v>
   <v>      -0.36416376       0.63583624       0.50000000 </v>
   <v>      -0.37095557       0.62904443       0.50000000 </v>
   <v>      -0.37774739       0.62225261       0.50000000 </v>
   <v>      -0.38453920       0.61546080       0.50000000 </v>
   <v>      -0.39133101       0.60866899       0.50000000 </v>
   <v>      -0.39812282       0.60187718       0.50000000 </v>
   <v>      -0.40491463       0.59508537       0.50000000 </v>
   <v>      -0.41170645       0.58829355       0.50000000 </v>
   <v>      -0.41849826       0.58150174       0.50000000 </v>
   <v>      -0.42529007       0.57470993       0.50000000 </v>
   <v>      -0.43208188       0.56791812       0.50000000 </v>
   <v>      -0.43887369       0.56112631       0.50000000 </v>
   <v>      -0.44566551       0.55433449       0.50000000 </v>
   <v>      -0.45245732       0.54754268       0.50000000 </v>
   <v>      -0.45924913       0.54075087       0.50000000 </v>
   <v>      -0.46604094       0.53395906       0.50000000 </v>
   <v>      -0.47283275       0.52716725       0.50000000 </v>
   <v>      -0.47962456       0.52037544       0.50000000 </v>
   <v>      -0.48641638       0.51358362       0.50000000 </v>
   <v>      -0.49320819       0.50679181       0.50000000 </v>
   <v>      -0.50000000       0.50000000       0.50000000 </v>
   <v>      -0.50000000       0.50000000       0.50000000 </v>
   <v>      -0.50000000       0.50000000       0.48648649 </v>
   <v>      -0.50000000       0.50000000       0.47297297 </v>
   <v>      -0.50000000       0.50000000       0.45945946 </v>
   <v>      -0.50000000       0.50000000       0.44594595 </v>
   <v>      -0.50000000       0.50000000       0.43243243 </v>
   <v>      -0.50000000       0.50000000       0.41891892 </v>
   <v>      -0.50000000       0.50000000       0.40540541 </v>
   <v>      -0.50000000       0.50000000       0.39189189 </v>
   <v>      -0.50000000       0.50000000       0.37837838 </v>
   <v>      -0.50000000       0.50000000       0.36486486 </v>
   <v>      -0.50000000       0.50000000       0.35135135 </v>
   <v>      -0.50000000       0.50000000       0.33783784 </v>
   <v>      -0.50000000       0.50000000       0.32432432 </v>
   <v>      -0.50000000       0.50000000       0.31081081 </v>
   <v>      -0.50000000       0.50000000       0.29729730 </v>
   <v>      -0.50000000       0.50000000       0.28378378 </v>
   <v>      -0.50000000       0.50000000       0.27027027 </v>
   <v>      -0.50000000       0.50000000       0.25675676 </v>
   <v>      -0.50000000       0.50000000       0.24324324 </v>
   <v>      -0.50000000       0.50000000       0.22972973 </v>
   <v>      -0.50000000       0.50000000       0.21621622 </v>
   <v>      -0.50000000       0.50000000       0.20270270 </v>
   <v>      -0.50000000       0.50000000       0.18918919 </v>
   <v>      -0.50000000       0.50000000       0.17567568 </v>
   <v>      -0.50000000       0.50000000       0.16216216 </v>
   <v>      -0.50000000       0.50000000       0.14864865 </v>
   <v>      -0.50000000       0.50000000       0.13513514 </v>
   <v>      -0.50000000       0.50000000       0.12162162 </v>
   <v>      -0.50000000       0.50000000       0.10810811 </v>
   <v>      -0.50000000       0.50000000       0.09459459 </v>
   <v>      -0.50000000       0.50000000       0.08108108 </v>
   <v>      -0.50000000       0.50000000       0.06756757 </v>
   <v>      -0.50000000       0.50000000       0.05405405 </v>
   <v>      -0.50000000       0.50000000       0.04054054 </v>
   <v>      -0.50000000       0.50000000       0.02702703 </v>
   <v>      -0.50000000       0.50000000       0.01351351 </v>
   <v>      -0.50000000       0.50000000       0.00000000 </v>
   <v>      -0.00000000       0.00000000       0.50000000 </v>
   <v>      -0.01851852       0.01851852       0.50000000 </v>
   <v>      -0.03703704       0.03703704       0.50000000 </v>
   <v>      -0.05555556       0.05555556       0.50000000 </v>
   <v>      -0.07407407       0.07407407       0.50000000 </v>
   <v>      -0.09259259       0.09259259       0.50000000 </v>
   <v>      -0.11111111       0.11111111       0.50000000 </v>
   <v>      -0.12962963       0.12962963       0.50000000 </v>
   <v>      -0.14814815       0.14814815       0.50000000 </v>
   <v>      -0.16666667       0.16666667       0.50000000 </v>
   <v>      -0.18518519       0.18518519       0.50000000 </v>
   <v>      -0.20370370       0.20370370       0.50000000 </v>
   <v>      -0.22222222       0.22222222       0.50000000 </v>
   <v>      -0.24074074       0.24074074       0.50000000 </v>
   <v>      -0.25925926       0.25925926       0.50000000 </v>
   <v>      -0.27777778       0.27777778       0.50000000 </v>
   <v>      -0.29629630       0.29629630       0.50000000 </v>
   <v>      -0.31481481       0.31481481       0.50000000 </v>
   <v>      -0.33333333       0.33333333       0.50000000 </v>
   <v>      -0.35185185       0.35185185       0.50000000 </v>
   <v>      -0.37037037       0.37037037       0.50000000 </v>
   <v>      -0.38888889       0.38888889       0.50000000 </v>
   <v>      -0.40740741       0.40740741       0.50000000 </v>
   <v>      -0.42592593       0.42592593       0.50000000 </v>
   <v>      -0.44444444       0.44444444       0.50000000 </v>
   <v>      -0.46296296       0.46296296       0.50000000 </v>
   <v>      -0.48148148       0.48148148       0.50000000 </v>
   <v>      -0.50000000       0.50000000       0.50000000 </v>
  </varray>
  <varray name="weights" >
   <v>       0.00255102 </v>
   <v>       0.00255102 </v>
   <v>       0.00255102 </v>
   <v>       0.00255102 </v>
   <v>       0.00255102 </v>
   <v>       0.00255102 </v>
   <v>       0.00255102 </v>
   <v>       0.00255102 </v>
   <v>       0.00255102 </v>
   <v>       0.00255102 </v>
   <v>       0.00255102 </v>
   <v>       0.00255102 </v>
   <v>       0.00255102 </v>
   <v>       0.00255102 </v>
   <v>       0.00255102 </v>
   <v>       0.00255102 </v>
   <v>       0.00255102 </v>
   <v>       0.00255102 </v>
   <v>       0.00255102 </v>
   <v>       0.00255102 </v>
   <v>       0.00255102 </v>
   <v>       0.00255102 </v>
   <v>       0.00255102 </v>
   <v>       0.00255102 </v>
   <v>       0.00255102 </v>
   <v>       0.00255102 </v>
   <v>       0.00255102 </v>
   <v>       0.00255102 </v>
   <v>       0.00255102 </v>
   <v>       0.00255102 </v>
   <v>       0.00255102 </v>
   <v>       0.00255102 </v>
   <v>       0.00255102 </v>
   <v>       0.00255102 </v>
   <v>       0.00255102 </v>
   <v>       0.00255102 </v>
   <v>       0.00255102 </v>
   <v>       0.00255102 </v>
   <v>       0.00255102 </v>
   <v>       0.00255102 </v>
   <v>       0.00255102 </v>
   <v>       0.00255102 </v>
   <v>       0.00255102 </v>
   <v>       0.00255102 </v>
   <v>       0.00255102 </v>
   <v>       0.00255102 </v>
   <v>       0.00255102 </v>
   <v>       0.00255102 </v>
   <v>       0.00255102 </v>
   <v>       0.00255102 </v>
   <v>       0.00255102 </v>
   <v>       0.00255102 </v>
   <v>       0.00255102 </v>
   <v>       0.00255102 </v>
   <v>       0.00255102 </v>
   <v>       0.00255102 </v>
   <v>       0.00255102 </v>
   <v>       0.00255102 </v>
   <v>       0.00255102 </v>
   <v>       0.00255102 </v>
   <v>       0.00255102 </v>
   <v>       0.00255102 </v>
   <v>       0.00255102 </v>
   <v>       0.00255102 </v>
   <v>       0.00255102 </v>
   <v>       0.00255102 </v>
   <v>       0.00255102 </v>
   <v>       0.00255102 </v>
   <v>       0.00255102 </v>
   <v>       0.00255102 </v>
   <v>       0.00255102 </v>
   <v>       0.00255102 </v>
   <v>       0.00255102 </v>
   <v>       0.00255102 </v>
   <v>       0.00255102 </v>
   <v>       0.00255102 </v>
   <v>       0.00255102 </v>
   <v>       0.00255102 </v>
   <v>       0.00255102 </v>
   <v>       0.00255102 </v>
   <v>       0.00255102 </v>
   <v>       0.00255102 </v>
   <v>       0.00255102 </v>
   <v>       0.00255102 </v>
   <v>       0.00255102 </v>
   <v>       0.00255102 </v>
   <v>       0.00255102 </v>
   <v>       0.00255102 </v>
   <v>       0.00255102 </v>
   <v>       0.00255102 </v>
   <v>       0.00255102 </v>
   <v>       0.00255102 </v>
   <v>       0.00255102 </v>
   <v>       0.00255102 </v>
   <v>       0.00255102 </v>
   <v>       0.00255102 </v>
   <v>       0.00255102 </v>
   <v>       0.00255102 </v>
   <v>       0.00255102 </v>
   <v>       0.00255102 </v>
   <v>       0.00255102 </v>
   <v>       0.00255102 </v>
   <v>       0.00255102 </v>
   <v>       0.00255102 </v>
   <v>       0.00255102 </v>
   <v>       0.00255102 </v>
   <v>       0.00255102 </v>
   <v>       0.00255102 </v>
   <v>       0.00255102 </v>
   <v>       0.00255102 </v>
   <v>       0.00255102 </v>
   <v>       0.00255102 </v>
   <v>       0.00255102 </v>
   <v>       0.00255102 </v>
   <v>       0.00255102 </v>
   <v>       0.00255102 </v>
   <v>       0.00255102 </v>
   <v>       0.00255102 </v>
   <v>       0.00255102 </v>
   <v>       0.00255102 </v>
   <v>       0.00255102 </v>
   <v>       0.00255102 </v>
   <v>       0.00255102 </v>
   <v>       0.00255102 </v>
   <v>       0.00255102 </v>
   <v>       0.00255102 </v>
   <v>       0.00255102 </v>
   <v>       0.00255102 </v>
   <v>       0.00255102 </v>
   <v>       0.00255102 </v>
   <v>       0.00255102 </v>
   <v>       0.00255102 </v>
   <v>       0.00255102 </v>
   <v>       0.00255102 </v>
   <v>       0.00255102 </v>
   <v>       0.00255102 </v>
   <v>       0.00255102 </v>
   <v>       0.00255102 </v>
   <v>       0.00255102 </v>
   <v>       0.00255102 </v>
   <v>       0.00255102 </v>
   <v>       0.00255102 </v>
   <v>       0.00255102 </v>
   <v>       0.00255102 </v>
   <v>       0.00255102 </v>
   <v>       0.00255102 </v>
   <v>       0.00255102 </v>
   <v>       0.00255102 </v>
   <v>       0.00255102 </v>
   <v>       0.00255102 </v>
   <v>       0.00255102 </v>
   <v>       0.00255102 </v>
   <v>       0.00255102 </v>
   <v>       0.00255102 </v>
   <v>       0.00255102 </v>
   <v>       0.00255102 </v>
   <v>       0.00255102 </v>
   <v>       0.00255102 </v>
   <v>       0.00255102 </v>
   <v>       0.00255102 </v>
   <v>       0.00255102 </v>
   <v>       0.00255102 </v>
   <v>       0.00255102 </v>
   <v>       0.00255102 </v>
   <v>       0.00255102 </v>
   <v>       0.00255102 </v>
   <v>       0.00255102 </v>
   <v>       0.00255102 </v>
   <v>       0.00255102 </v>
   <v>       0.00255102 </v>
   <v>       0.00255102 </v>
   <v>       0.00255102 </v>
   <v>       0.00255102 </v>
   <v>       0.00255102 </v>
   <v>       0.00255102 </v>
   <v>       0.00255102 </v>
   <v>       0.00255102 </v>
   <v>       0.00255102 </v>
   <v>       0.00255102 </v>
   <v>       0.00255102 </v>
   <v>       0.00255102 </v>
   <v>       0.00255102 </v>
   <v>       0.00255102 </v>
   <v>       0.00255102 </v>
   <v>       0.00255102 </v>
   <v>       0.00255102 </v>
   <v>       0.00255102 </v>
   <v>       0.00255102 </v>
   <v>       0.00255102 </v>
   <v>       0.00255102 </v>
   <v>       0.00255102 </v>
   <v>       0.00255102 </v>
   <v>       0.00255102 </v>
   <v>       0.00255102 </v>
   <v>       0.00255102 </v>
   <v>       0.00255102 </v>
   <v>       0.00255102 </v>
   <v>       0.00255102 </v>
   <v>       0.00255102 </v>
   <v>       0.00255102 </v>
   <v>       0.00255102 </v>
   <v>       0.00255102 </v>
   <v>       0.00255102 </v>
   <v>       0.00255102 </v>
   <v>       0.00255102 </v>
   <v>       0.00255102 </v>
   <v>       0.00255102 </v>
   <v>       0.00255102 </v>
   <v>       0.00255102 </v>
   <v>       0.00255102 </v>
   <v>       0.00255102 </v>
   <v>       0.00255102 </v>
   <v>       0.00255102 </v>
   <v>       0.00255102 </v>
   <v>       0.00255102 </v>
   <v>       0.00255102 </v>
   <v>       0.00255102 </v>
   <v>       0.00255102 </v>
   <v>       0.00255102 </v>
   <v>       0.00255102 </v>
   <v>       0.00255102 </v>
   <v>       0.00255102 </v>
   <v>       0.00255102 </v>
   <v>       0.00255102 </v>
   <v>       0.00255102 </v>
   <v>       0.00255102 </v>
   <v>       0.00255102 </v>
   <v>       0.00255102 </v>
   <v>       0.00255102 </v>
   <v>       0.00255102 </v>
   <v>       0.00255102 </v>
   <v>       0.00255102 </v>
   <v>       0.00255102 </v>
   <v>       0.00255102 </v>
   <v>       0.00255102 </v>
   <v>       0.00255102 </v>
   <v>       0.00255102 </v>
   <v>       0.00255102 </v>
   <v>       0.00255102 </v>
   <v>       0.00255102 </v>
   <v>       0.00255102 </v>
   <v>       0.00255102 </v>
   <v>       0.00255102 </v>
   <v>       0.00255102 </v>
   <v>       0.00255102 </v>
   <v>       0.00255102 </v>
   <v>       0.00255102 </v>
   <v>       0.00255102 </v>
   <v>       0.00255102 </v>
   <v>       0.00255102 </v>
   <v>       0.00255102 </v>
   <v>       0.00255102 </v>
   <v>       0.00255102 </v>
   <v>       0.00255102 </v>
   <v>       0.00255102 </v>
   <v>       0.00255102 </v>
   <v>       0.00255102 </v>
   <v>       0.00255102 </v>
   <v>       0.00255102 </v>
   <v>       0.00255102 </v>
   <v>       0.00255102 </v>
   <v>       0.00255102 </v>
   <v>       0.00255102 </v>
   <v>       0.00255102 </v>
   <v>       0.00255102 </v>
   <v>       0.00255102 </v>
   <v>       0.00255102 </v>
   <v>       0.00255102 </v>
   <v>       0.00255102 </v>
   <v>       0.00255102 </v>
   <v>       0.00255102 </v>
   <v>       0.00255102 </v>
   <v>       0.00255102 </v>
   <v>       0.00255102 </v>
   <v>       0.00255102 </v>
   <v>       0.00255102 </v>
   <v>       0.00255102 </v>
   <v>       0.00255102 </v>
   <v>       0.00255102 </v>
   <v>       0.00255102 </v>
   <v>       0.00255102 </v>
   <v>       0.00255102 </v>
   <v>       0.00255102 </v>
   <v>       0.00255102 </v>
   <v>       0.00255102 </v>
   <v>       0.00255102 </v>
   <v>       0.00255102 </v>
   <v>       0.00255102 </v>
   <v>       0.00255102 </v>
   <v>       0.00255102 </v>
   <v>       0.00255102 </v>
   <v>       0.00255102 </v>
   <v>       0.00255102 </v>
   <v>       0.00255102 </v>
   <v>       0.00255102 </v>
   <v>       0.00255102 </v>
   <v>       0.00255102 </v>
   <v>       0.00255102 </v>
   <v>       0.00255102 </v>
   <v>       0.00255102 </v>
   <v>       0.00255102 </v>
   <v>       0.00255102 </v>
   <v>       0.00255102 </v>
   <v>       0.00255102 </v>
   <v>       0.00255102 </v>
   <v>       0.00255102 </v>
   <v>       0.00255102 </v>
   <v>       0.00255102 </v>
   <v>       0.00255102 </v>
   <v>       0.00255102 </v>
   <v>       0.00255102 </v>
   <v>       0.00255102 </v>
   <v>       0.00255102 </v>
   <v>       0.00255102 </v>
   <v>       0.00255102 </v>
   <v>       0.00255102 </v>
   <v>       0.00255102 </v>
   <v>       0.00255102 </v>
   <v>       0.00255102 </v>
   <v>       0.00255102 </v>
   <v>       0.00255102 </v>
   <v>       0.00255102 </v>
   <v>       0.00255102 </v>
   <v>       0.00255102 </v>
   <v>       0.00255102 </v>
   <v>       0.00255102 </v>
   <v>       0.00255102 </v>
   <v>       0.00255102 </v>
   <v>       0.00255102 </v>
   <v>       0.00255102 </v>
   <v>       0.00255102 </v>
   <v>       0.00255102 </v>
   <v>       0.00255102 </v>
   <v>       0.00255102 </v>
   <v>       0.00255102 </v>
   <v>       0.00255102 </v>
   <v>       0.00255102 </v>
   <v>       0.00255102 </v>
   <v>       0.00255102 </v>
   <v>       0.00255102 </v>
   <v>       0.00255102 </v>
   <v>       0.00255102 </v>
   <v>       0.00255102 </v>
   <v>       0.00255102 </v>
   <v>       0.00255102 </v>
   <v>       0.00255102 </v>
   <v>       0.00255102 </v>
   <v>       0.00255102 </v>
   <v>       0.00255102 </v>
   <v>       0.00255102 </v>
   <v>       0.00255102 </v>
   <v>       0.00255102 </v>
   <v>       0.00255102 </v>
   <v>       0.00255102 </v>
   <v>       0.00255102 </v>
   <v>       0.00255102 </v>
   <v>       0.00255102 </v>
   <v>       0.00255102 </v>
   <v>       0.00255102 </v>
   <v>       0.00255102 </v>
   <v>       0.00255102 </v>
   <v>       0.00255102 </v>
   <v>       0.00255102 </v>
   <v>       0.00255102 </v>
   <v>       0.00255102 </v>
   <v>       0.00255102 </v>
   <v>       0.00255102 </v>
   <v>       0.00255102 </v>
   <v>       0.00255102 </v>
   <v>       0.00255102 </v>
   <v>       0.00255102 </v>
   <v>       0.00255102 </v>
   <v>       0.00255102 </v>
   <v>       0.00255102 </v>
   <v>       0.00255102 </v>
   <v>       0.00255102 </v>
   <v>       0.00255102 </v>
   <v>       0.00255102 </v>
   <v>       0.00255102 </v>
   <v>       0.00255102 </v>
   <v>       0.00255102 </v>
   <v>       0.00255102 </v>
   <v>       0.00255102 </v>
   <v>       0.00255102 </v>
   <v>       0.00255102 </v>
   <v>       0.00255102 </v>
   <v>       0.00255102 </v>
   <v>       0.00255102 </v>
   <v>       0.00255102 </v>
   <v>       0.00255102 </v>
   <v>       0.00255102 </v>
   <v>       0.00255102 </v>
  </varray>
 </kpoints>
 <parameters>
  <separator name="general" >
   <i type="string" name="SYSTEM">SnSe</i>
   <i type="logical" name="LCOMPAT"> F  </i>
  </separator>
  <separator name="electronic" >
   <i type="string" name="PREC">accura</i>
   <i name="ENMAX">    600.00000000</i>
   <i name="ENAUG">    446.84200000</i>
   <i name="EDIFF">      0.00000010</i>
   <i type="int" name="IALGO">    58</i>
   <i type="int" name="IWAVPR">    10</i>
   <i type="int" name="NBANDS">    48</i>
   <i name="NELECT">     40.00000000</i>
   <i type="int" name="TURBO">     0</i>
   <i type="int" name="IRESTART">     0</i>
   <i type="int" name="NREBOOT">     0</i>
   <i type="int" name="NMIN">     0</i>
   <i name="EREF">      0.00000000</i>
   <separator name="electronic smearing" >
    <i type="int" name="ISMEAR">     0</i>
    <i name="SIGMA">      0.01000000</i>
    <i name="KSPACING">      0.50000000</i>
    <i type="logical" name="KGAMMA"> T  </i>
   </separator>
   <separator name="electronic projectors" >
    <i type="logical" name="LREAL"> F  </i>
    <v name="ROPT">      0.00000000      0.00000000</v>
    <i type="int" name="LMAXPAW">  -100</i>
    <i type="int" name="LMAXMIX">     4</i>
    <i type="logical" name="NLSPLINE"> F  </i>
   </separator>
   <separator name="electronic startup" >
    <i type="int" name="ISTART">     1</i>
    <i type="int" name="ICHARG">    11</i>
    <i type="int" name="INIWAV">     1</i>
   </separator>
   <separator name="electronic spin" >
    <i type="int" name="ISPIN">     1</i>
    <i type="logical" name="LNONCOLLINEAR"> F  </i>
    <v name="MAGMOM">      1.00000000      1.00000000      1.00000000      1.00000000</v>
    <i name="NUPDOWN">     -1.00000000</i>
    <i type="logical" name="LSORBIT"> F  </i>
    <v name="SAXIS">      0.00000000      0.00000000      1.00000000</v>
    <i type="logical" name="LSPIRAL"> F  </i>
    <v name="QSPIRAL">      0.00000000      0.00000000      0.00000000</v>
    <i type="logical" name="LZEROZ"> F  </i>
   </separator>
   <separator name="electronic exchange-correlation" >
    <i type="logical" name="LASPH"> F  </i>
    <i type="logical" name="LMETAGGA"> F  </i>
   </separator>
   <separator name="electronic convergence" >
    <i type="int" name="NELM">    60</i>
    <i type="int" name="NELMDL">     0</i>
    <i type="int" name="NELMIN">     2</i>
    <i name="ENINI">    600.00000000</i>
    <separator name="electronic convergence detail" >
     <i type="logical" name="LDIAG"> T  </i>
     <i type="logical" name="LSUBROT"> F  </i>
     <i name="WEIMIN">      0.00000000</i>
     <i name="EBREAK">      0.00000000</i>
     <i name="DEPER">      0.30000000</i>
     <i type="int" name="NRMM">     4</i>
     <i name="TIME">      0.40000000</i>
    </separator>
   </separator>
   <separator name="electronic mixer" >
    <i name="AMIX">      0.40000000</i>
    <i name="BMIX">      1.00000000</i>
    <i name="AMIN">      0.10000000</i>
    <i name="AMIX_MAG">      1.60000000</i>
    <i name="BMIX_MAG">      1.00000000</i>
    <separator name="electronic mixer details" >
     <i type="int" name="IMIX">     4</i>
     <i type="logical" name="MIXFIRST"> F  </i>
     <i type="int" name="MAXMIX">   -45</i>
     <i name="WC">    100.00000000</i>
     <i type="int" name="INIMIX">     1</i>
     <i type="int" name="MIXPRE">     1</i>
     <i type="int" name="MREMOVE">     5</i>
    </separator>
   </separator>
   <separator name="electronic dipolcorrection" >
    <i type="logical" name="LDIPOL"> F  </i>
    <i type="logical" name="LMONO"> F  </i>
    <i type="int" name="IDIPOL">     0</i>
    <i name="EPSILON">      1.00000000</i>
    <v name="DIPOL">   -100.00000000   -100.00000000   -100.00000000</v>
    <i name="EFIELD">      0.00000000</i>
   </separator>
  </separator>
  <separator name="grids" >
   <i type="int" name="NGX">    50</i>
   <i type="int" name="NGY">    50</i>
   <i type="int" name="NGZ">    36</i>
   <i type="int" name="NGXF">   100</i>
   <i type="int" name="NGYF">   100</i>
   <i type="int" name="NGZF">    72</i>
   <i type="logical" name="ADDGRID"> T  </i>
  </separator>
  <separator name="ionic" >
   <i type="int" name="NSW">     0</i>
   <i type="int" name="IBRION">    -1</i>
   <i type="int" name="MDALGO">     0</i>
   <i type="int" name="ISIF">     2</i>
   <i name="PSTRESS">      0.00000000</i>
   <i name="EDIFFG">      0.00000100</i>
   <i type="int" name="NFREE">     0</i>
   <i name="POTIM">      0.50000000</i>
   <i name="SMASS">     -3.00000000</i>
   <i name="SCALEE">      1.00000000</i>
  </separator>
  <separator name="ionic md" >
   <i name="TEBEG">      0.00010000</i>
   <i name="TEEND">      0.00010000</i>
   <i type="int" name="NBLOCK">     1</i>
   <i type="int" name="KBLOCK">     1</i>
   <i type="int" name="NPACO">   256</i>
   <i name="APACO">     16.00000000</i>
  </separator>
  <separator name="symmetry" >
   <i type="int" name="ISYM">     2</i>
   <i name="SYMPREC">      0.00001000</i>
  </separator>
  <separator name="dos" >
   <i type="int" name="LORBIT">     0</i>
   <v name="RWIGS">     -1.00000000     -1.00000000</v>
   <i type="int" name="NEDOS">   301</i>
   <i name="EMIN">     10.00000000</i>
   <i name="EMAX">    -10.00000000</i>
   <i name="EFERMI">      0.00000000</i>
  </separator>
  <separator name="writing" >
   <i type="int" name="NWRITE">     2</i>
   <i type="logical" name="LWAVE"> F  </i>
   <i type="logical" name="LDOWNSAMPLE"> F  </i>
   <i type="logical" name="LCHARG"> F  </i>
   <i type="logical" name="LPARD"> F  </i>
   <i type="logical" name="LVTOT"> F  </i>
   <i type="logical" name="LVHAR"> F  </i>
   <i type="logical" name="LELF"> F  </i>
   <i type="logical" name="LOPTICS"> F  </i>
   <v name="STM">      0.00000000      0.00000000      0.00000000      0.00000000      0.00000000      0.00000000      0.00000000</v>
  </separator>
  <separator name="performance" >
   <i type="int" name="NPAR">     4</i>
   <i type="int" name="NSIM">     4</i>
   <i type="int" name="NBLK">    -1</i>
   <i type="logical" name="LPLANE"> T  </i>
   <i type="logical" name="LSCALAPACK"> T  </i>
   <i type="logical" name="LSCAAWARE"> F  </i>
   <i type="logical" name="LSCALU"> F  </i>
   <i type="logical" name="LASYNC"> F  </i>
   <i type="logical" name="LORBITALREAL"> F  </i>
  </separator>
  <separator name="miscellaneous" >
   <i type="int" name="IDIOT">     3</i>
   <i type="int" name="ISPECIAL">     0</i>
   <i type="logical" name="LMUSIC"> F  </i>
   <v name="POMASS">    118.71000000     78.96000000</v>
   <v name="DARWINR">      0.00000000      0.00000000</v>
   <v name="DARWINV">      1.00000000      1.00000000</v>
   <i type="logical" name="LCORR"> T  </i>
  </separator>
  <i type="logical" name="GGA_COMPAT"> T  </i>
  <i type="logical" name="LBERRY"> F  </i>
  <i type="int" name="ICORELEVEL">     0</i>
  <i type="logical" name="LDAU"> F  </i>
  <i type="int" name="I_CONSTRAINED_M">     0</i>
  <separator name="electronic exchange-correlation" >
   <i type="string" name="GGA">--</i>
   <i type="int" name="VOSKOWN">     0</i>
   <i type="logical" name="LHFCALC"> F  </i>
   <i type="string" name="PRECFOCK"></i>
   <i type="logical" name="LSYMGRAD"> F  </i>
   <i type="logical" name="LHFONE"> F  </i>
   <i type="logical" name="LRHFCALC"> F  </i>
   <i type="logical" name="LTHOMAS"> F  </i>
   <i type="logical" name="LMODELHF"> F  </i>
   <i name="ENCUT4O">     -1.00000000</i>
   <i type="int" name="EXXOEP">     0</i>
   <i type="int" name="FOURORBIT">     0</i>
   <i name="AEXX">      0.00000000</i>
   <i name="HFALPHA">      0.00000000</i>
   <i name="MCALPHA">      0.00000000</i>
   <i name="ALDAX">      1.00000000</i>
   <i name="AGGAX">      1.00000000</i>
   <i name="ALDAC">      1.00000000</i>
   <i name="AGGAC">      1.00000000</i>
   <i type="int" name="NKREDX">     1</i>
   <i type="int" name="NKREDY">     1</i>
   <i type="int" name="NKREDZ">     1</i>
   <i type="logical" name="SHIFTRED"> F  </i>
   <i type="logical" name="ODDONLY"> F  </i>
   <i type="logical" name="EVENONLY"> F  </i>
   <i type="int" name="LMAXFOCK">     0</i>
   <i type="int" name="NMAXFOCKAE">     0</i>
   <i type="logical" name="LFOCKAEDFT"> F  </i>
   <i name="HFSCREEN">      0.00000000</i>
   <i name="HFSCREENC">      0.00000000</i>
   <i type="int" name="NBANDSGWLOW">     0</i>
  </separator>
  <separator name="vdW DFT" >
   <i type="logical" name="LUSE_VDW"> F  </i>
   <i name="Zab_VDW">     -0.84910000</i>
   <i name="PARAM1">      0.12340000</i>
   <i name="PARAM2">      1.00000000</i>
   <i name="PARAM3">      0.00000000</i>
  </separator>
  <separator name="model GW" >
   <i type="int" name="MODEL_GW">     0</i>
   <i name="MODEL_EPS0">     16.07685500</i>
   <i name="MODEL_ALPHA">      1.00000000</i>
  </separator>
  <separator name="linear response parameters" >
   <i type="logical" name="LEPSILON"> F  </i>
   <i type="logical" name="LRPA"> F  </i>
   <i type="logical" name="LNABLA"> F  </i>
   <i type="logical" name="LVEL"> F  </i>
   <i type="int" name="KINTER">     0</i>
   <i name="CSHIFT">      0.10000000</i>
   <i name="OMEGAMAX">     -1.00000000</i>
   <i name="DEG_THRESHOLD">      0.00200000</i>
   <i name="RTIME">     -0.10000000</i>
   <i name="WPLASMAI">      0.00000000</i>
   <v name="DFIELD">      0.00000000      0.00000000      0.00000000</v>
   <v name="WPLASMA">      0.00000000      0.00000000      0.00000000      0.00000000      0.00000000      0.00000000      0.00000000      0.00000000      0.00000000</v>
  </separator>
  <separator name="orbital magnetization" >
   <i type="logical" name="NUCIND"> F  </i>
   <v name="MAGPOS">      0.00000000      0.00000000      0.00000000</v>
   <i type="logical" name="LNICSALL"> T  </i>
   <i type="logical" name="ORBITALMAG"> F  </i>
   <i type="logical" name="LMAGBLOCH"> F  </i>
   <i type="logical" name="LCHIMAG"> F  </i>
   <i type="logical" name="LGAUGE"> T  </i>
   <i type="int" name="MAGATOM">     0</i>
   <v name="MAGDIPOL">      0.00000000      0.00000000      0.00000000</v>
   <v name="AVECCONST">      0.00000000      0.00000000      0.00000000</v>
  </separator>
  <separator name="response functions" >
   <i type="logical" name="LADDER"> F  </i>
   <i type="logical" name="LRPAFORCE"> F  </i>
   <i type="logical" name="LFXC"> F  </i>
   <i type="logical" name="LHARTREE"> T  </i>
   <i type="int" name="IBSE">     0</i>
   <v type="int" name="KPOINT">    -1     0     0     0</v>
   <i type="logical" name="LTCTE"> F  </i>
   <i type="logical" name="LTETE"> F  </i>
   <i type="logical" name="LTRIPLET"> F  </i>
   <i type="logical" name="LFXCEPS"> F  </i>
   <i type="logical" name="LFXHEG"> F  </i>
   <i type="int" name="NATURALO">     2</i>
   <i type="logical" name="L2ORDER"> F  </i>
   <i type="logical" name="LMP2LT"> F  </i>
   <i type="logical" name="LUSEW"> F  </i>
   <i name="ENCUTGW">     -2.00000000</i>
   <i name="ENCUTGWSOFT">     -2.00000000</i>
   <i name="ENCUTLF">     -1.00000000</i>
   <i type="int" name="LMAXMP2">    -1</i>
   <i name="SCISSOR">      0.00000000</i>
   <i type="int" name="NOMEGA">     0</i>
   <i type="int" name="NOMEGAR">     0</i>
   <i type="int" name="NBANDSGW">    -1</i>
   <i type="int" name="NBANDSO">    -1</i>
   <i type="int" name="NBANDSV">    -1</i>
   <i type="int" name="NELM">     1</i>
   <i type="int" name="NELMHF">     1</i>
   <i type="int" name="DIM">     3</i>
   <i type="int" name="ANTIRES">     0</i>
   <i name="OMEGAMAX">    -30.00000000</i>
   <i name="OMEGAMIN">    -30.00000000</i>
   <i name="OMEGATL">   -200.00000000</i>
   <i type="int" name="OMEGAGRID">   140</i>
   <i name="CSHIFT">     -0.10000000</i>
   <i type="logical" name="SELFENERGY"> F  </i>
   <i type="logical" name="LSPECTRAL"> F  </i>
   <i type="logical" name="LSPECTRALGW"> F  </i>
   <i type="logical" name="LSINGLES"> F  </i>
   <i type="logical" name="LFERMIGW"> F  </i>
   <i type="logical" name="ODDONLYGW"> F  </i>
   <i type="logical" name="EVENONLYGW"> F  </i>
   <i type="int" name="NKREDLFX">     1</i>
   <i type="int" name="NKREDLFY">     1</i>
   <i type="int" name="NKREDLFZ">     1</i>
   <i type="int" name="MAXMEM">  2800</i>
   <i type="int" name="TELESCOPE">     0</i>
   <i type="int" name="TAUPAR">     1</i>
   <i type="int" name="OMEGAPAR">    -1</i>
   <i name="LAMBDA">      1.00000000</i>
  </separator>
  <separator name="External order field" >
   <i name="OFIELD_KAPPA">      0.00000000</i>
   <v name="OFIELD_K">      0.00000000      0.00000000      0.00000000</v>
   <i name="OFIELD_Q6_NEAR">      0.00000000</i>
   <i name="OFIELD_Q6_FAR">      0.00000000</i>
   <i name="OFIELD_A">      0.00000000</i>
  </separator>
 </parameters>
 <atominfo>
  <atoms>       4 </atoms>
  <types>       2 </types>
  <array name="atoms" >
   <dimension dim="1">ion</dimension>
   <field type="string">element</field>
   <field type="int">atomtype</field>
   <set>
    <rc><c>Sn</c><c>   1</c></rc>
    <rc><c>Sn</c><c>   1</c></rc>
    <rc><c>Se</c><c>   2</c></rc>
    <rc><c>Se</c><c>   2</c></rc>
   </set>
  </array>
  <array name="atomtypes" >
   <dimension dim="1">type</dimension>
   <field type="int">atomspertype</field>
   <field type="string">element</field>
   <field>mass</field>
   <field>valence</field>
   <field type="string">pseudopotential</field>
   <set>
    <rc><c>   2</c><c>Sn</c><c>    118.71000000</c><c>     14.00000000</c><c>  PAW_PBE Sn_d 06Sep2000                </c></rc>
    <rc><c>   2</c><c>Se</c><c>     78.96000000</c><c>      6.00000000</c><c>  PAW_PBE Se 06Sep2000                  </c></rc>
   </set>
  </array>
 </atominfo>
 <structure name="initialpos" >
  <crystal>
   <varray name="basis" >
    <v>       2.13552400      -5.90816938      -0.00000000 </v>
    <v>       2.13552401       5.90816938       0.00000000 </v>
    <v>       0.00000000       0.00000000       4.24739298 </v>
   </varray>
   <i name="volume">    107.17903332 </i>
   <varray name="rec_basis" >
    <v>       0.23413457      -0.08462858       0.00000000 </v>
    <v>       0.23413457       0.08462858      -0.00000000 </v>
    <v>      -0.00000000      -0.00000000       0.23543854 </v>
   </varray>
  </crystal>
  <varray name="positions" >
   <v>       0.37512364       0.62487636       0.75000000 </v>
   <v>       0.62487636       0.37512364       0.25000000 </v>
   <v>       0.14341737       0.85658263       0.75000000 </v>
   <v>       0.85658263       0.14341737       0.25000000 </v>
  </varray>
 </structure>
 <calculation>
  <scstep>
   <time name="total">   15.98   16.02</time>
   <energy>
    <i name="alphaZ">    103.08739963 </i>
    <i name="ewald">  -2987.53637685 </i>
    <i name="hartreedc">  -1185.27296518 </i>
    <i name="XCdc">    112.11510719 </i>
    <i name="pawpsdc">   4147.88099040 </i>
    <i name="pawaedc">  -4194.50438730 </i>
    <i name="eentropy">     -0.00000000 </i>
    <i name="bandstr">   -312.48931969 </i>
    <i name="atom">   4300.47238994 </i>
    <i name="e_fr_energy">    -16.24716185 </i>
    <i name="e_wo_entrp">    -16.24716185 </i>
    <i name="e_0_energy">    -16.24716185 </i>
   </energy>
  </scstep>
  <scstep>
   <time name="total">   19.99   20.12</time>
   <energy>
    <i name="alphaZ">    103.08739963 </i>
    <i name="ewald">  -2987.53637685 </i>
    <i name="hartreedc">  -1185.27296518 </i>
    <i name="XCdc">    112.11510719 </i>
    <i name="pawpsdc">   4147.88099040 </i>
    <i name="pawaedc">  -4194.50438730 </i>
    <i name="eentropy">     -0.00000000 </i>
    <i name="bandstr">   -312.48931972 </i>
    <i name="atom">   4300.47238994 </i>
    <i name="e_fr_energy">    -16.24716188 </i>
    <i name="e_wo_entrp">    -16.24716188 </i>
    <i name="e_0_energy">    -16.24716188 </i>
   </energy>
  </scstep>
  <structure>
   <crystal>
    <varray name="basis" >
     <v>       2.13552400      -5.90816938      -0.00000000 </v>
     <v>       2.13552401       5.90816938       0.00000000 </v>
     <v>       0.00000000       0.00000000       4.24739298 </v>
    </varray>
    <i name="volume">    107.17903332 </i>
    <varray name="rec_basis" >
     <v>       0.23413457      -0.08462858       0.00000000 </v>
     <v>       0.23413457       0.08462858      -0.00000000 </v>
     <v>      -0.00000000      -0.00000000       0.23543854 </v>
    </varray>
   </crystal>
   <varray name="positions" >
    <v>       0.37512364       0.62487636       0.75000000 </v>
    <v>       0.62487636       0.37512364       0.25000000 </v>
    <v>       0.14341737       0.85658263       0.75000000 </v>
    <v>       0.85658263       0.14341737       0.25000000 </v>
   </varray>
  </structure>
  <varray name="forces" >
   <v>       0.00000000       0.06873358       0.00000000 </v>
   <v>      -0.00000000      -0.06873358      -0.00000000 </v>
   <v>      -0.00000000      -0.10586255      -0.00000000 </v>
   <v>       0.00000000       0.10586255       0.00000000 </v>
  </varray>
  <varray name="stress" >
   <v>      88.88954781      -0.00000000       0.00000000 </v>
   <v>      -0.00000000     -89.47034251      -0.00000000 </v>
   <v>       0.00000000      -0.00000000      -5.36427998 </v>
  </varray>
  <energy>
   <i name="e_fr_energy">    -17.12894449 </i>
   <i name="e_wo_entrp">    -17.12894449 </i>
   <i name="e_0_energy">     -0.00000000 </i>
  </energy>
  <time name="totalsc">   55.22   55.47</time>
  <eigenvalues>
   <array>
    <dimension dim="1">band</dimension>
    <dimension dim="2">kpoint</dimension>
    <dimension dim="3">spin</dimension>
    <field>eigene</field>
    <field>occ</field>
    <set>
     <set comment="spin 1">
      <set comment="kpoint 1">
       <r>  -15.5993    1.0000 </r>
       <r>  -15.5613    1.0000 </r>
       <r>  -15.5613    1.0000 </r>
       <r>  -15.5051    1.0000 </r>
       <r>  -15.4226    1.0000 </r>
       <r>  -15.4217    1.0000 </r>
       <r>  -15.3561    1.0000 </r>
       <r>  -15.3551    1.0000 </r>
       <r>  -15.3538    1.0000 </r>
       <r>  -15.3436    1.0000 </r>
       <r>   -8.8120    1.0000 </r>
       <r>   -7.5252    1.0000 </r>
       <r>   -0.3681    1.0000 </r>
       <r>   -0.0096    1.0000 </r>
       <r>    0.2481    1.0000 </r>
       <r>    1.7951    1.0000 </r>
       <r>    1.8996    1.0000 </r>
       <r>    2.5850    1.0000 </r>
       <r>    3.4645    1.0000 </r>
       <r>    4.3818    1.0000 </r>
       <r>    8.9813    0.0000 </r>
       <r>    9.2008    0.0000 </r>
       <r>    9.5105    0.0000 </r>
       <r>    9.9893    0.0000 </r>
       <r>   10.2355    0.0000 </r>
       <r>   10.6823    0.0000 </r>
       <r>   10.8167    0.0000 </r>
       <r>   11.5716    0.0000 </r>
       <r>   11.8763    0.0000 </r>
       <r>   14.0900    0.0000 </r>
       <r>   14.4292    0.0000 </r>
       <r>   14.4481    0.0000 </r>
       <r>   14.6412    0.0000 </r>
       <r>   14.9901    0.0000 </r>
       <r>   15.2728    0.0000 </r>
       <r>   15.5640    0.0000 </r>
       <r>   16.7745    0.0000 </r>
       <r>   19.3326    0.0000 </r>
       <r>   20.3516    0.0000 </r>
       <r>   21.1755    0.0000 </r>
       <r>   21.2822    0.0000 </r>
       <r>   21.8300    0.0000 </r>
       <r>   21.9743    0.0000 </r>
       <r>   22.3969    0.0000 </r>
       <r>   22.6176    0.0000 </r>
       <r>   22.9025    0.0000 </r>
       <r>   23.0696    0.0000 </r>
       <r>   23.1763    0.0000 </r>
      </set>
      <set comment="kpoint 2">
       <r>  -15.5993    1.0000 </r>
       <r>  -15.5613    1.0000 </r>
       <r>  -15.5613    1.0000 </r>
       <r>  -15.5051    1.0000 </r>
       <r>  -15.4226    1.0000 </r>
       <r>  -15.4217    1.0000 </r>
       <r>  -15.3561    1.0000 </r>
       <r>  -15.3551    1.0000 </r>
       <r>  -15.3537    1.0000 </r>
       <r>  -15.3435    1.0000 </r>
       <r>   -8.8112    1.0000 </r>
       <r>   -7.5252    1.0000 </r>
       <r>   -0.3723    1.0000 </r>
       <r>   -0.0118    1.0000 </r>
       <r>    0.2439    1.0000 </r>
       <r>    1.7965    1.0000 </r>
       <r>    1.9038    1.0000 </r>
       <r>    2.5931    1.0000 </r>
       <r>    3.4653    1.0000 </r>
       <r>    4.3816    1.0000 </r>
       <r>    8.9856    0.0000 </r>
       <r>    9.1648    0.0000 </r>
       <r>    9.5413    0.0000 </r>
       <r>    9.9833    0.0000 </r>
       <r>   10.2262    0.0000 </r>
       <r>   10.6732    0.0000 </r>
       <r>   10.8196    0.0000 </r>
       <r>   11.5738    0.0000 </r>
       <r>   11.8747    0.0000 </r>
       <r>   14.1024    0.0000 </r>
       <r>   14.3975    0.0000 </r>
       <r>   14.4192    0.0000 </r>
       <r>   14.6930    0.0000 </r>
       <r>   15.0012    0.0000 </r>
       <r>   15.2546    0.0000 </r>
       <r>   15.6028    0.0000 </r>
       <r>   16.7867    0.0000 </r>
       <r>   19.3259    0.0000 </r>
       <r>   20.3425    0.0000 </r>
       <r>   21.1756    0.0000 </r>
       <r>   21.2797    0.0000 </r>
       <r>   21.8164    0.0000 </r>
       <r>   21.9289    0.0000 </r>
       <r>   22.3974    0.0000 </r>
       <r>   22.6698    0.0000 </r>
       <r>   22.8557    0.0000 </r>
       <r>   23.1290    0.0000 </r>
       <r>   23.1883    0.0000 </r>
      </set>
      <set comment="kpoint 3">
       <r>  -15.5992    1.0000 </r>
       <r>  -15.5613    1.0000 </r>
       <r>  -15.5613    1.0000 </r>
       <r>  -15.5051    1.0000 </r>
       <r>  -15.4227    1.0000 </r>
       <r>  -15.4218    1.0000 </r>
       <r>  -15.3562    1.0000 </r>
       <r>  -15.3551    1.0000 </r>
       <r>  -15.3536    1.0000 </r>
       <r>  -15.3434    1.0000 </r>
       <r>   -8.8088    1.0000 </r>
       <r>   -7.5253    1.0000 </r>
       <r>   -0.3847    1.0000 </r>
       <r>   -0.0193    1.0000 </r>
       <r>    0.2322    1.0000 </r>
       <r>    1.8006    1.0000 </r>
       <r>    1.9163    1.0000 </r>
       <r>    2.6169    1.0000 </r>
       <r>    3.4680    1.0000 </r>
       <r>    4.3809    1.0000 </r>
       <r>    8.9982    0.0000 </r>
       <r>    9.0814    0.0000 </r>
       <r>    9.6088    0.0000 </r>
       <r>    9.9653    0.0000 </r>
       <r>   10.1986    0.0000 </r>
       <r>   10.6474    0.0000 </r>
       <r>   10.8273    0.0000 </r>
       <r>   11.5803    0.0000 </r>
       <r>   11.8701    0.0000 </r>
       <r>   14.1393    0.0000 </r>
       <r>   14.3026    0.0000 </r>
       <r>   14.3899    0.0000 </r>
       <r>   14.7914    0.0000 </r>
       <r>   15.0340    0.0000 </r>
       <r>   15.2216    0.0000 </r>
       <r>   15.6970    0.0000 </r>
       <r>   16.8229    0.0000 </r>
       <r>   19.3059    0.0000 </r>
       <r>   20.3154    0.0000 </r>
       <r>   21.1763    0.0000 </r>
       <r>   21.2703    0.0000 </r>
       <r>   21.7765    0.0000 </r>
       <r>   21.8242    0.0000 </r>
       <r>   22.3990    0.0000 </r>
       <r>   22.7799    0.0000 </r>
       <r>   22.7966    0.0000 </r>
       <r>   23.2236    0.0000 </r>
       <r>   23.2424    0.0000 </r>
      </set>
      <set comment="kpoint 4">
       <r>  -15.5992    1.0000 </r>
       <r>  -15.5613    1.0000 </r>
       <r>  -15.5613    1.0000 </r>
       <r>  -15.5051    1.0000 </r>
       <r>  -15.4228    1.0000 </r>
       <r>  -15.4218    1.0000 </r>
       <r>  -15.3563    1.0000 </r>
       <r>  -15.3552    1.0000 </r>
       <r>  -15.3535    1.0000 </r>
       <r>  -15.3432    1.0000 </r>
       <r>   -8.8048    1.0000 </r>
       <r>   -7.5253    1.0000 </r>
       <r>   -0.4050    1.0000 </r>
       <r>   -0.0343    1.0000 </r>
       <r>    0.2164    1.0000 </r>
       <r>    1.8075    1.0000 </r>
       <r>    1.9367    1.0000 </r>
       <r>    2.6556    1.0000 </r>
       <r>    3.4723    1.0000 </r>
       <r>    4.3797    1.0000 </r>
       <r>    8.9776    0.0000 </r>
       <r>    9.0191    0.0000 </r>
       <r>    9.6861    0.0000 </r>
       <r>    9.9355    0.0000 </r>
       <r>   10.1537    0.0000 </r>
       <r>   10.6076    0.0000 </r>
       <r>   10.8373    0.0000 </r>
       <r>   11.5910    0.0000 </r>
       <r>   11.8633    0.0000 </r>
       <r>   14.1981    0.0000 </r>
       <r>   14.1995    0.0000 </r>
       <r>   14.3440    0.0000 </r>
       <r>   14.9025    0.0000 </r>
       <r>   15.0877    0.0000 </r>
       <r>   15.1973    0.0000 </r>
       <r>   15.8203    0.0000 </r>
       <r>   16.8816    0.0000 </r>
       <r>   19.2732    0.0000 </r>
       <r>   20.2711    0.0000 </r>
       <r>   21.1786    0.0000 </r>
       <r>   21.2472    0.0000 </r>
       <r>   21.7058    0.0000 </r>
       <r>   21.7132    0.0000 </r>
       <r>   22.4015    0.0000 </r>
       <r>   22.7093    0.0000 </r>
       <r>   22.9594    0.0000 </r>
       <r>   23.2806    0.0000 </r>
       <r>   23.3748    0.0000 </r>
      </set>
      <set comment="kpoint 5">
       <r>  -15.5990    1.0000 </r>
       <r>  -15.5613    1.0000 </r>
       <r>  -15.5612    1.0000 </r>
       <r>  -15.5052    1.0000 </r>
       <r>  -15.4229    1.0000 </r>
       <r>  -15.4219    1.0000 </r>
       <r>  -15.3565    1.0000 </r>
       <r>  -15.3552    1.0000 </r>
       <r>  -15.3533    1.0000 </r>
       <r>  -15.3430    1.0000 </r>
       <r>   -8.7993    1.0000 </r>
       <r>   -7.5253    1.0000 </r>
       <r>   -0.4327    1.0000 </r>
       <r>   -0.0601    1.0000 </r>
       <r>    0.2012    1.0000 </r>
       <r>    1.8171    1.0000 </r>
       <r>    1.9646    1.0000 </r>
       <r>    2.7077    1.0000 </r>
       <r>    3.4783    1.0000 </r>
       <r>    4.3780    1.0000 </r>
       <r>    8.8637    0.0000 </r>
       <r>    9.0480    0.0000 </r>
       <r>    9.7626    0.0000 </r>
       <r>    9.8941    0.0000 </r>
       <r>   10.0933    0.0000 </r>
       <r>   10.5561    0.0000 </r>
       <r>   10.8488    0.0000 </r>
       <r>   11.6061    0.0000 </r>
       <r>   11.8553    0.0000 </r>
       <r>   14.0906    0.0000 </r>
       <r>   14.2815    0.0000 </r>
       <r>   14.2859    0.0000 </r>
       <r>   15.0207    0.0000 </r>
       <r>   15.1612    0.0000 </r>
       <r>   15.1894    0.0000 </r>
       <r>   15.9609    0.0000 </r>
       <r>   16.9609    0.0000 </r>
       <r>   19.2284    0.0000 </r>
       <r>   20.2109    0.0000 </r>
       <r>   21.1839    0.0000 </r>
       <r>   21.1965    0.0000 </r>
       <r>   21.6062    0.0000 </r>
       <r>   21.6315    0.0000 </r>
       <r>   22.4050    0.0000 </r>
       <r>   22.6490    0.0000 </r>
       <r>   23.1396    0.0000 </r>
       <r>   23.3584    0.0000 </r>
       <r>   23.5198    0.0000 </r>
      </set>
      <set comment="kpoint 6">
       <r>  -15.5989    1.0000 </r>
       <r>  -15.5614    1.0000 </r>
       <r>  -15.5612    1.0000 </r>
       <r>  -15.5052    1.0000 </r>
       <r>  -15.4230    1.0000 </r>
       <r>  -15.4220    1.0000 </r>
       <r>  -15.3567    1.0000 </r>
       <r>  -15.3552    1.0000 </r>
       <r>  -15.3530    1.0000 </r>
       <r>  -15.3427    1.0000 </r>
       <r>   -8.7921    1.0000 </r>
       <r>   -7.5254    1.0000 </r>
       <r>   -0.4669    1.0000 </r>
       <r>   -0.0997    1.0000 </r>
       <r>    0.1909    1.0000 </r>
       <r>    1.8295    1.0000 </r>
       <r>    1.9993    1.0000 </r>
       <r>    2.7718    1.0000 </r>
       <r>    3.4860    1.0000 </r>
       <r>    4.3759    1.0000 </r>
       <r>    8.7436    0.0000 </r>
       <r>    9.0845    0.0000 </r>
       <r>    9.8341    0.0000 </r>
       <r>    9.8415    0.0000 </r>
       <r>   10.0193    0.0000 </r>
       <r>   10.4943    0.0000 </r>
       <r>   10.8613    0.0000 </r>
       <r>   11.6254    0.0000 </r>
       <r>   11.8471    0.0000 </r>
       <r>   13.9821    0.0000 </r>
       <r>   14.2206    0.0000 </r>
       <r>   14.3834    0.0000 </r>
       <r>   15.1451    0.0000 </r>
       <r>   15.1983    0.0000 </r>
       <r>   15.2527    0.0000 </r>
       <r>   16.1132    0.0000 </r>
       <r>   17.0581    0.0000 </r>
       <r>   19.1726    0.0000 </r>
       <r>   20.1364    0.0000 </r>
       <r>   21.1051    0.0000 </r>
       <r>   21.1934    0.0000 </r>
       <r>   21.5371    0.0000 </r>
       <r>   21.5457    0.0000 </r>
       <r>   22.4092    0.0000 </r>
       <r>   22.5999    0.0000 </r>
       <r>   23.3299    0.0000 </r>
       <r>   23.4737    0.0000 </r>
       <r>   23.6749    0.0000 </r>
      </set>
      <set comment="kpoint 7">
       <r>  -15.5987    1.0000 </r>
       <r>  -15.5614    1.0000 </r>
       <r>  -15.5611    1.0000 </r>
       <r>  -15.5053    1.0000 </r>
       <r>  -15.4232    1.0000 </r>
       <r>  -15.4221    1.0000 </r>
       <r>  -15.3569    1.0000 </r>
       <r>  -15.3553    1.0000 </r>
       <r>  -15.3528    1.0000 </r>
       <r>  -15.3424    1.0000 </r>
       <r>   -8.7834    1.0000 </r>
       <r>   -7.5255    1.0000 </r>
       <r>   -0.5070    1.0000 </r>
       <r>   -0.1534    1.0000 </r>
       <r>    0.1878    1.0000 </r>
       <r>    1.8446    1.0000 </r>
       <r>    2.0401    1.0000 </r>
       <r>    2.8459    1.0000 </r>
       <r>    3.4952    1.0000 </r>
       <r>    4.3733    1.0000 </r>
       <r>    8.6194    0.0000 </r>
       <r>    9.1281    0.0000 </r>
       <r>    9.7782    0.0000 </r>
       <r>    9.8982    0.0000 </r>
       <r>    9.9337    0.0000 </r>
       <r>   10.4239    0.0000 </r>
       <r>   10.8751    0.0000 </r>
       <r>   11.6492    0.0000 </r>
       <r>   11.8399    0.0000 </r>
       <r>   13.8738    0.0000 </r>
       <r>   14.1527    0.0000 </r>
       <r>   14.5031    0.0000 </r>
       <r>   15.2223    0.0000 </r>
       <r>   15.2757    0.0000 </r>
       <r>   15.3607    0.0000 </r>
       <r>   16.2742    0.0000 </r>
       <r>   17.1706    0.0000 </r>
       <r>   19.1073    0.0000 </r>
       <r>   20.0494    0.0000 </r>
       <r>   20.9784    0.0000 </r>
       <r>   21.2090    0.0000 </r>
       <r>   21.4350    0.0000 </r>
       <r>   21.5225    0.0000 </r>
       <r>   22.4140    0.0000 </r>
       <r>   22.5615    0.0000 </r>
       <r>   23.5267    0.0000 </r>
       <r>   23.6991    0.0000 </r>
       <r>   23.8388    0.0000 </r>
      </set>
      <set comment="kpoint 8">
       <r>  -15.5985    1.0000 </r>
       <r>  -15.5615    1.0000 </r>
       <r>  -15.5611    1.0000 </r>
       <r>  -15.5053    1.0000 </r>
       <r>  -15.4234    1.0000 </r>
       <r>  -15.4222    1.0000 </r>
       <r>  -15.3571    1.0000 </r>
       <r>  -15.3554    1.0000 </r>
       <r>  -15.3525    1.0000 </r>
       <r>  -15.3419    1.0000 </r>
       <r>   -8.7732    1.0000 </r>
       <r>   -7.5258    1.0000 </r>
       <r>   -0.5521    1.0000 </r>
       <r>   -0.2196    1.0000 </r>
       <r>    0.1918    1.0000 </r>
       <r>    1.8624    1.0000 </r>
       <r>    2.0863    1.0000 </r>
       <r>    2.9286    1.0000 </r>
       <r>    3.5060    1.0000 </r>
       <r>    4.3702    1.0000 </r>
       <r>    8.4920    0.0000 </r>
       <r>    9.1777    0.0000 </r>
       <r>    9.7051    0.0000 </r>
       <r>    9.8387    0.0000 </r>
       <r>    9.9533    0.0000 </r>
       <r>   10.3465    0.0000 </r>
       <r>   10.8902    0.0000 </r>
       <r>   11.6779    0.0000 </r>
       <r>   11.8347    0.0000 </r>
       <r>   13.7666    0.0000 </r>
       <r>   14.0862    0.0000 </r>
       <r>   14.6386    0.0000 </r>
       <r>   15.2592    0.0000 </r>
       <r>   15.4122    0.0000 </r>
       <r>   15.4832    0.0000 </r>
       <r>   16.4419    0.0000 </r>
       <r>   17.2956    0.0000 </r>
       <r>   19.0339    0.0000 </r>
       <r>   19.9517    0.0000 </r>
       <r>   20.8318    0.0000 </r>
       <r>   21.2318    0.0000 </r>
       <r>   21.3282    0.0000 </r>
       <r>   21.5230    0.0000 </r>
       <r>   22.4191    0.0000 </r>
       <r>   22.5344    0.0000 </r>
       <r>   23.7283    0.0000 </r>
       <r>   23.9717    0.0000 </r>
       <r>   24.4795    0.0000 </r>
      </set>
      <set comment="kpoint 9">
       <r>  -15.5983    1.0000 </r>
       <r>  -15.5616    1.0000 </r>
       <r>  -15.5610    1.0000 </r>
       <r>  -15.5054    1.0000 </r>
       <r>  -15.4236    1.0000 </r>
       <r>  -15.4224    1.0000 </r>
       <r>  -15.3574    1.0000 </r>
       <r>  -15.3554    1.0000 </r>
       <r>  -15.3521    1.0000 </r>
       <r>  -15.3415    1.0000 </r>
       <r>   -8.7614    1.0000 </r>
       <r>   -7.5262    1.0000 </r>
       <r>   -0.6013    1.0000 </r>
       <r>   -0.2957    1.0000 </r>
       <r>    0.2018    1.0000 </r>
       <r>    1.8828    1.0000 </r>
       <r>    2.1370    1.0000 </r>
       <r>    3.0183    1.0000 </r>
       <r>    3.5182    1.0000 </r>
       <r>    4.3668    1.0000 </r>
       <r>    8.3623    0.0000 </r>
       <r>    9.2321    0.0000 </r>
       <r>    9.6228    0.0000 </r>
       <r>    9.7362    0.0000 </r>
       <r>    9.9978    0.0000 </r>
       <r>   10.2645    0.0000 </r>
       <r>   10.9070    0.0000 </r>
       <r>   11.7120    0.0000 </r>
       <r>   11.8324    0.0000 </r>
       <r>   13.6613    0.0000 </r>
       <r>   14.0237    0.0000 </r>
       <r>   14.7879    0.0000 </r>
       <r>   15.3072    0.0000 </r>
       <r>   15.5546    0.0000 </r>
       <r>   15.6188    0.0000 </r>
       <r>   16.6148    0.0000 </r>
       <r>   17.4303    0.0000 </r>
       <r>   18.9542    0.0000 </r>
       <r>   19.8451    0.0000 </r>
       <r>   20.6760    0.0000 </r>
       <r>   21.2225    0.0000 </r>
       <r>   21.2613    0.0000 </r>
       <r>   21.5373    0.0000 </r>
       <r>   22.4245    0.0000 </r>
       <r>   22.5150    0.0000 </r>
       <r>   23.9336    0.0000 </r>
       <r>   24.0490    0.0000 </r>
       <r>   24.6920    0.0000 </r>
      </set>
      <set comment="kpoint 10">
       <r>  -15.5981    1.0000 </r>
       <r>  -15.5617    1.0000 </r>
       <r>  -15.5609    1.0000 </r>
       <r>  -15.5055    1.0000 </r>
       <r>  -15.4239    1.0000 </r>
       <r>  -15.4225    1.0000 </r>
       <r>  -15.3576    1.0000 </r>
       <r>  -15.3555    1.0000 </r>
       <r>  -15.3518    1.0000 </r>
       <r>  -15.3410    1.0000 </r>
       <r>   -8.7482    1.0000 </r>
       <r>   -7.5268    1.0000 </r>
       <r>   -0.6538    1.0000 </r>
       <r>   -0.3792    1.0000 </r>
       <r>    0.2167    1.0000 </r>
       <r>    1.9059    1.0000 </r>
       <r>    2.1916    1.0000 </r>
       <r>    3.1137    1.0000 </r>
       <r>    3.5318    1.0000 </r>
       <r>    4.3630    1.0000 </r>
       <r>    8.2310    0.0000 </r>
       <r>    9.2887    0.0000 </r>
       <r>    9.5323    0.0000 </r>
       <r>    9.6280    0.0000 </r>
       <r>   10.0306    0.0000 </r>
       <r>   10.1809    0.0000 </r>
       <r>   10.9255    0.0000 </r>
       <r>   11.7525    0.0000 </r>
       <r>   11.8335    0.0000 </r>
       <r>   13.5587    0.0000 </r>
       <r>   13.9670    0.0000 </r>
       <r>   14.9493    0.0000 </r>
       <r>   15.3649    0.0000 </r>
       <r>   15.7025    0.0000 </r>
       <r>   15.7657    0.0000 </r>
       <r>   16.7918    0.0000 </r>
       <r>   17.5722    0.0000 </r>
       <r>   18.8699    0.0000 </r>
       <r>   19.7313    0.0000 </r>
       <r>   20.5165    0.0000 </r>
       <r>   21.1193    0.0000 </r>
       <r>   21.2964    0.0000 </r>
       <r>   21.5607    0.0000 </r>
       <r>   22.4297    0.0000 </r>
       <r>   22.5037    0.0000 </r>
       <r>   23.7213    0.0000 </r>
       <r>   24.8155    0.0000 </r>
       <r>   24.9071    0.0000 </r>
      </set>
      <set comment="kpoint 11">
       <r>  -15.5978    1.0000 </r>
       <r>  -15.5618    1.0000 </r>
       <r>  -15.5608    1.0000 </r>
       <r>  -15.5056    1.0000 </r>
       <r>  -15.4242    1.0000 </r>
       <r>  -15.4227    1.0000 </r>
       <r>  -15.3579    1.0000 </r>
       <r>  -15.3556    1.0000 </r>
       <r>  -15.3514    1.0000 </r>
       <r>  -15.3404    1.0000 </r>
       <r>   -8.7335    1.0000 </r>
       <r>   -7.5276    1.0000 </r>
       <r>   -0.7088    1.0000 </r>
       <r>   -0.4682    1.0000 </r>
       <r>    0.2355    1.0000 </r>
       <r>    1.9316    1.0000 </r>
       <r>    2.2495    1.0000 </r>
       <r>    3.2136    1.0000 </r>
       <r>    3.5466    1.0000 </r>
       <r>    4.3588    1.0000 </r>
       <r>    8.0986    0.0000 </r>
       <r>    9.3435    0.0000 </r>
       <r>    9.4345    0.0000 </r>
       <r>    9.5156    0.0000 </r>
       <r>   10.0506    0.0000 </r>
       <r>   10.1004    0.0000 </r>
       <r>   10.9461    0.0000 </r>
       <r>   11.8000    0.0000 </r>
       <r>   11.8384    0.0000 </r>
       <r>   13.4595    0.0000 </r>
       <r>   13.9174    0.0000 </r>
       <r>   15.1214    0.0000 </r>
       <r>   15.4307    0.0000 </r>
       <r>   15.8550    0.0000 </r>
       <r>   15.9225    0.0000 </r>
       <r>   16.9719    0.0000 </r>
       <r>   17.7185    0.0000 </r>
       <r>   18.7828    0.0000 </r>
       <r>   19.6117    0.0000 </r>
       <r>   20.3560    0.0000 </r>
       <r>   21.0217    0.0000 </r>
       <r>   21.3409    0.0000 </r>
       <r>   21.5910    0.0000 </r>
       <r>   22.4342    0.0000 </r>
       <r>   22.4996    0.0000 </r>
       <r>   23.6351    0.0000 </r>
       <r>   24.7475    0.0000 </r>
       <r>   25.0427    0.0000 </r>
      </set>
      <set comment="kpoint 12">
       <r>  -15.5975    1.0000 </r>
       <r>  -15.5619    1.0000 </r>
       <r>  -15.5607    1.0000 </r>
       <r>  -15.5057    1.0000 </r>
       <r>  -15.4245    1.0000 </r>
       <r>  -15.4229    1.0000 </r>
       <r>  -15.3582    1.0000 </r>
       <r>  -15.3556    1.0000 </r>
       <r>  -15.3510    1.0000 </r>
       <r>  -15.3398    1.0000 </r>
       <r>   -8.7174    1.0000 </r>
       <r>   -7.5286    1.0000 </r>
       <r>   -0.7656    1.0000 </r>
       <r>   -0.5612    1.0000 </r>
       <r>    0.2580    1.0000 </r>
       <r>    1.9599    1.0000 </r>
       <r>    2.3101    1.0000 </r>
       <r>    3.3172    1.0000 </r>
       <r>    3.5625    1.0000 </r>
       <r>    4.3543    1.0000 </r>
       <r>    7.9656    0.0000 </r>
       <r>    9.3305    0.0000 </r>
       <r>    9.3888    0.0000 </r>
       <r>    9.4005    0.0000 </r>
       <r>   10.0310    0.0000 </r>
       <r>   10.0569    0.0000 </r>
       <r>   10.9689    0.0000 </r>
       <r>   11.8474    0.0000 </r>
       <r>   11.8556    0.0000 </r>
       <r>   13.3645    0.0000 </r>
       <r>   13.8752    0.0000 </r>
       <r>   15.3028    0.0000 </r>
       <r>   15.5034    0.0000 </r>
       <r>   16.0116    0.0000 </r>
       <r>   16.0878    0.0000 </r>
       <r>   17.1542    0.0000 </r>
       <r>   17.8665    0.0000 </r>
       <r>   18.6950    0.0000 </r>
       <r>   19.4878    0.0000 </r>
       <r>   20.1960    0.0000 </r>
       <r>   20.9324    0.0000 </r>
       <r>   21.3931    0.0000 </r>
       <r>   21.6269    0.0000 </r>
       <r>   22.4375    0.0000 </r>
       <r>   22.5020    0.0000 </r>
       <r>   23.4477    0.0000 </r>
       <r>   24.7907    0.0000 </r>
       <r>   25.0722    0.0000 </r>
      </set>
      <set comment="kpoint 13">
       <r>  -15.5971    1.0000 </r>
       <r>  -15.5620    1.0000 </r>
       <r>  -15.5606    1.0000 </r>
       <r>  -15.5058    1.0000 </r>
       <r>  -15.4248    1.0000 </r>
       <r>  -15.4231    1.0000 </r>
       <r>  -15.3585    1.0000 </r>
       <r>  -15.3557    1.0000 </r>
       <r>  -15.3506    1.0000 </r>
       <r>  -15.3391    1.0000 </r>
       <r>   -8.6999    1.0000 </r>
       <r>   -7.5301    1.0000 </r>
       <r>   -0.8236    1.0000 </r>
       <r>   -0.6570    1.0000 </r>
       <r>    0.2835    1.0000 </r>
       <r>    1.9907    1.0000 </r>
       <r>    2.3727    1.0000 </r>
       <r>    3.4234    1.0000 </r>
       <r>    3.5793    1.0000 </r>
       <r>    4.3496    1.0000 </r>
       <r>    7.8325    0.0000 </r>
       <r>    9.2213    0.0000 </r>
       <r>    9.2838    0.0000 </r>
       <r>    9.4123    0.0000 </r>
       <r>    9.9852    0.0000 </r>
       <r>   10.0493    0.0000 </r>
       <r>   10.9943    0.0000 </r>
       <r>   11.8606    0.0000 </r>
       <r>   11.9201    0.0000 </r>
       <r>   13.2744    0.0000 </r>
       <r>   13.8405    0.0000 </r>
       <r>   15.4924    0.0000 </r>
       <r>   15.5816    0.0000 </r>
       <r>   16.1710    0.0000 </r>
       <r>   16.2605    0.0000 </r>
       <r>   17.3374    0.0000 </r>
       <r>   18.0132    0.0000 </r>
       <r>   18.6086    0.0000 </r>
       <r>   19.3606    0.0000 </r>
       <r>   20.0374    0.0000 </r>
       <r>   20.8547    0.0000 </r>
       <r>   21.4525    0.0000 </r>
       <r>   21.6679    0.0000 </r>
       <r>   22.4387    0.0000 </r>
       <r>   22.5098    0.0000 </r>
       <r>   23.1990    0.0000 </r>
       <r>   24.9302    0.0000 </r>
       <r>   25.0153    0.0000 </r>
      </set>
      <set comment="kpoint 14">
       <r>  -15.5968    1.0000 </r>
       <r>  -15.5621    1.0000 </r>
       <r>  -15.5604    1.0000 </r>
       <r>  -15.5059    1.0000 </r>
       <r>  -15.4251    1.0000 </r>
       <r>  -15.4233    1.0000 </r>
       <r>  -15.3589    1.0000 </r>
       <r>  -15.3557    1.0000 </r>
       <r>  -15.3502    1.0000 </r>
       <r>  -15.3385    1.0000 </r>
       <r>   -8.6811    1.0000 </r>
       <r>   -7.5319    1.0000 </r>
       <r>   -0.8820    1.0000 </r>
       <r>   -0.7546    1.0000 </r>
       <r>    0.3119    1.0000 </r>
       <r>    2.0239    1.0000 </r>
       <r>    2.4368    1.0000 </r>
       <r>    3.5316    1.0000 </r>
       <r>    3.5969    1.0000 </r>
       <r>    4.3448    1.0000 </r>
       <r>    7.6996    0.0000 </r>
       <r>    9.1077    0.0000 </r>
       <r>    9.1667    0.0000 </r>
       <r>    9.4003    0.0000 </r>
       <r>    9.9767    0.0000 </r>
       <r>   10.0279    0.0000 </r>
       <r>   11.0226    0.0000 </r>
[...]
       <r>   21.8066    0.0000 </r>
       <r>   22.7770    0.0000 </r>
       <r>   22.7770    0.0000 </r>
       <r>   23.7088    0.0000 </r>
       <r>   23.7088    0.0000 </r>
       <r>   23.7854    0.0000 </r>
       <r>   23.7854    0.0000 </r>
      </set>
      <set comment="kpoint 391">
       <r>  -15.5704    1.0000 </r>
       <r>  -15.5704    1.0000 </r>
       <r>  -15.5321    1.0000 </r>
       <r>  -15.5321    1.0000 </r>
       <r>  -15.4310    1.0000 </r>
       <r>  -15.4310    1.0000 </r>
       <r>  -15.3550    1.0000 </r>
       <r>  -15.3550    1.0000 </r>
       <r>  -15.3431    1.0000 </r>
       <r>  -15.3431    1.0000 </r>
       <r>   -7.9370    1.0000 </r>
       <r>   -7.9370    1.0000 </r>
       <r>   -2.1532    1.0000 </r>
       <r>   -2.1532    1.0000 </r>
       <r>    2.9438    1.0000 </r>
       <r>    2.9438    1.0000 </r>
       <r>    3.3531    1.0000 </r>
       <r>    3.3531    1.0000 </r>
       <r>    4.3405    1.0000 </r>
       <r>    4.3405    1.0000 </r>
       <r>    6.8049    0.0000 </r>
       <r>    6.8049    0.0000 </r>
       <r>    7.7422    0.0000 </r>
       <r>    7.7422    0.0000 </r>
       <r>    8.0783    0.0000 </r>
       <r>    8.0783    0.0000 </r>
       <r>   12.7667    0.0000 </r>
       <r>   12.7667    0.0000 </r>
       <r>   13.2411    0.0000 </r>
       <r>   13.2411    0.0000 </r>
       <r>   15.3315    0.0000 </r>
       <r>   15.3315    0.0000 </r>
       <r>   16.5904    0.0000 </r>
       <r>   16.5904    0.0000 </r>
       <r>   19.0783    0.0000 </r>
       <r>   19.0783    0.0000 </r>
       <r>   21.3269    0.0000 </r>
       <r>   21.3269    0.0000 </r>
       <r>   21.5742    0.0000 </r>
       <r>   21.5742    0.0000 </r>
       <r>   21.8240    0.0000 </r>
       <r>   21.8240    0.0000 </r>
       <r>   22.8082    0.0000 </r>
       <r>   22.8082    0.0000 </r>
       <r>   23.7299    0.0000 </r>
       <r>   23.7299    0.0000 </r>
       <r>   23.7466    0.0000 </r>
       <r>   23.7466    0.0000 </r>
      </set>
      <set comment="kpoint 392">
       <r>  -15.5704    1.0000 </r>
       <r>  -15.5704    1.0000 </r>
       <r>  -15.5321    1.0000 </r>
       <r>  -15.5321    1.0000 </r>
       <r>  -15.4310    1.0000 </r>
       <r>  -15.4310    1.0000 </r>
       <r>  -15.3550    1.0000 </r>
       <r>  -15.3550    1.0000 </r>
       <r>  -15.3431    1.0000 </r>
       <r>  -15.3431    1.0000 </r>
       <r>   -7.9369    1.0000 </r>
       <r>   -7.9369    1.0000 </r>
       <r>   -2.1547    1.0000 </r>
       <r>   -2.1547    1.0000 </r>
       <r>    2.9435    1.0000 </r>
       <r>    2.9435    1.0000 </r>
       <r>    3.3624    1.0000 </r>
       <r>    3.3624    1.0000 </r>
       <r>    4.3362    1.0000 </r>
       <r>    4.3362    1.0000 </r>
       <r>    6.8036    0.0000 </r>
       <r>    6.8036    0.0000 </r>
       <r>    7.7441    0.0000 </r>
       <r>    7.7441    0.0000 </r>
       <r>    8.0749    0.0000 </r>
       <r>    8.0749    0.0000 </r>
       <r>   12.7603    0.0000 </r>
       <r>   12.7603    0.0000 </r>
       <r>   13.2357    0.0000 </r>
       <r>   13.2357    0.0000 </r>
       <r>   15.3337    0.0000 </r>
       <r>   15.3337    0.0000 </r>
       <r>   16.5884    0.0000 </r>
       <r>   16.5884    0.0000 </r>
       <r>   19.0964    0.0000 </r>
       <r>   19.0964    0.0000 </r>
       <r>   21.3424    0.0000 </r>
       <r>   21.3424    0.0000 </r>
       <r>   21.5609    0.0000 </r>
       <r>   21.5609    0.0000 </r>
       <r>   21.8309    0.0000 </r>
       <r>   21.8309    0.0000 </r>
       <r>   22.8184    0.0000 </r>
       <r>   22.8184    0.0000 </r>
       <r>   23.7328    0.0000 </r>
       <r>   23.7328    0.0000 </r>
       <r>   23.7380    0.0000 </r>
       <r>   23.7380    0.0000 </r>
      </set>
     </set>
    </set>
   </array>
  </eigenvalues>
  <separator name="orbital magnetization" >
   <v name="MAGDIPOLOUT">      0.00000000      0.00000000      0.00000000</v>
  </separator>
  <dos>
   <i name="efermi">      5.55267882 </i>
   <total>
    <array>
     <dimension dim="1">gridpoints</dimension>
     <dimension dim="2">spin</dimension>
     <field>energy</field>
     <field>total</field>
     <field>integrated</field>
     <set>
      <set comment="spin 1">
       <r>   -17.8595     0.0000     0.0000 </r>
       <r>   -17.6938     0.0000     0.0000 </r>
       <r>   -17.5280     0.0000     0.0000 </r>
       <r>   -17.3623     0.0000     0.0000 </r>
       <r>   -17.1965     0.0000     0.0000 </r>
       <r>   -17.0308     0.0000     0.0000 </r>
       <r>   -16.8650     0.0000     0.0000 </r>
       <r>   -16.6993     0.0000     0.0000 </r>
       <r>   -16.5335     0.0000     0.0000 </r>
       <r>   -16.3678     0.0000     0.0000 </r>
       <r>   -16.2020     0.0000     0.0000 </r>
       <r>   -16.0363     0.0000     0.0000 </r>
       <r>   -15.8705     0.0000     0.0000 </r>
       <r>   -15.7048     0.0000     0.0000 </r>
       <r>   -15.5390    33.8286     5.6071 </r>
       <r>   -15.3733    25.2718    12.1888 </r>
       <r>   -15.2075     0.0000    20.0000 </r>
       <r>   -15.0418     0.0000    20.0000 </r>
       <r>   -14.8760     0.0000    20.0000 </r>
       <r>   -14.7103     0.0000    20.0000 </r>
       <r>   -14.5445     0.0000    20.0000 </r>
       <r>   -14.3788     0.0000    20.0000 </r>
       <r>   -14.2130     0.0000    20.0000 </r>
       <r>   -14.0473     0.0000    20.0000 </r>
       <r>   -13.8815     0.0000    20.0000 </r>
       <r>   -13.7158     0.0000    20.0000 </r>
       <r>   -13.5500     0.0000    20.0000 </r>
       <r>   -13.3843     0.0000    20.0000 </r>
       <r>   -13.2185     0.0000    20.0000 </r>
       <r>   -13.0528     0.0000    20.0000 </r>
       <r>   -12.8870     0.0000    20.0000 </r>
       <r>   -12.7213     0.0000    20.0000 </r>
       <r>   -12.5555     0.0000    20.0000 </r>
       <r>   -12.3898     0.0000    20.0000 </r>
       <r>   -12.2240     0.0000    20.0000 </r>
       <r>   -12.0583     0.0000    20.0000 </r>
       <r>   -11.8925     0.0000    20.0000 </r>
       <r>   -11.7268     0.0000    20.0000 </r>
       <r>   -11.5610     0.0000    20.0000 </r>
       <r>   -11.3953     0.0000    20.0000 </r>
       <r>   -11.2295     0.0000    20.0000 </r>
       <r>   -11.0638     0.0000    20.0000 </r>
       <r>   -10.8980     0.0000    20.0000 </r>
       <r>   -10.7323     0.0000    20.0000 </r>
       <r>   -10.5665     0.0000    20.0000 </r>
       <r>   -10.4008     0.0000    20.0000 </r>
       <r>   -10.2350     0.0000    20.0000 </r>
       <r>   -10.0693     0.0000    20.0000 </r>
       <r>    -9.9035     0.0000    20.0000 </r>
       <r>    -9.7378     0.0000    20.0000 </r>
       <r>    -9.5720     0.0000    20.0000 </r>
       <r>    -9.4063     0.0000    20.0000 </r>
       <r>    -9.2405     0.0000    20.0000 </r>
       <r>    -9.0748     0.0000    20.0000 </r>
       <r>    -8.9090     0.0000    20.0000 </r>
       <r>    -8.7433     0.9552    20.1583 </r>
       <r>    -8.5775     0.4636    20.3217 </r>
       <r>    -8.4118     0.4814    20.5492 </r>
       <r>    -8.2460     0.4024    20.6789 </r>
       <r>    -8.0803     0.3275    20.7992 </r>
       <r>    -7.9145     4.4461    21.6910 </r>
       <r>    -7.7488     2.9798    22.8562 </r>
       <r>    -7.5830     0.7614    23.7436 </r>
       <r>    -7.4173     0.0000    24.0000 </r>
       <r>    -7.2515     0.0000    24.0000 </r>
       <r>    -7.0858     0.0000    24.0000 </r>
       <r>    -6.9200     0.0000    24.0000 </r>
       <r>    -6.7543     0.0000    24.0000 </r>
       <r>    -6.5885     0.0000    24.0000 </r>
       <r>    -6.4228     0.0000    24.0000 </r>
       <r>    -6.2570     0.0000    24.0000 </r>
       <r>    -6.0913     0.0000    24.0000 </r>
       <r>    -5.9255     0.0000    24.0000 </r>
       <r>    -5.7598     0.0000    24.0000 </r>
       <r>    -5.5940     0.0000    24.0000 </r>
       <r>    -5.4283     0.0000    24.0000 </r>
       <r>    -5.2625     0.0000    24.0000 </r>
       <r>    -5.0968     0.0000    24.0000 </r>
       <r>    -4.9310     0.0000    24.0000 </r>
       <r>    -4.7653     0.0000    24.0000 </r>
       <r>    -4.5995     0.0000    24.0000 </r>
       <r>    -4.4338     0.0000    24.0000 </r>
       <r>    -4.2680     0.0000    24.0000 </r>
       <r>    -4.1023     0.0000    24.0000 </r>
       <r>    -3.9365     0.0000    24.0000 </r>
       <r>    -3.7708     0.0000    24.0000 </r>
       <r>    -3.6050     0.0000    24.0000 </r>
       <r>    -3.4393     0.0000    24.0000 </r>
       <r>    -3.2735     0.0000    24.0000 </r>
       <r>    -3.1078     0.0000    24.0000 </r>
       <r>    -2.9420     0.0000    24.0000 </r>
       <r>    -2.7763     0.0000    24.0000 </r>
       <r>    -2.6105     0.7241    24.1200 </r>
       <r>    -2.4448     0.5040    24.2927 </r>
       <r>    -2.2790     0.2756    24.3773 </r>
       <r>    -2.1133     1.0880    24.6548 </r>
       <r>    -1.9475     0.5854    24.9032 </r>
       <r>    -1.7818     0.5767    25.0956 </r>
       <r>    -1.6160     1.1558    25.3906 </r>
       <r>    -1.4503     1.0517    25.9294 </r>
       <r>    -1.2845     0.9437    26.2687 </r>
       <r>    -1.1188     0.8070    26.5266 </r>
       <r>    -0.9530     0.8490    26.7887 </r>
       <r>    -0.7873     1.6083    27.2615 </r>
       <r>    -0.6215     0.3982    27.4180 </r>
       <r>    -0.4558     0.2701    27.5091 </r>
       <r>    -0.2900     0.2307    27.6199 </r>
       <r>    -0.1243     0.1475    27.6724 </r>
       <r>     0.0415     0.4351    27.7864 </r>
       <r>     0.2072     1.5881    28.1051 </r>
       <r>     0.3730     0.7387    28.6377 </r>
       <r>     0.5387     0.4112    28.7926 </r>
       <r>     0.7045     0.4525    28.9321 </r>
       <r>     0.8702     0.3184    29.0528 </r>
       <r>     1.0360     0.3697    29.1786 </r>
       <r>     1.2017     0.3015    29.2796 </r>
       <r>     1.3675     0.3043    29.3974 </r>
       <r>     1.5332     0.8024    29.6840 </r>
       <r>     1.6990     1.3549    30.2297 </r>
       <r>     1.8647     1.9978    30.7546 </r>
       <r>     2.0305     1.4002    31.3290 </r>
       <r>     2.1962     1.4505    31.7863 </r>
       <r>     2.3620     1.1761    32.2460 </r>
       <r>     2.5277     0.8056    32.6029 </r>
       <r>     2.6935     1.4011    33.0179 </r>
       <r>     2.8592     1.9453    33.6081 </r>
       <r>     3.0250     2.7628    34.4681 </r>
       <r>     3.1907     2.0580    35.3411 </r>
       <r>     3.3565     2.8939    36.3470 </r>
       <r>     3.5222     1.4531    36.9806 </r>
       <r>     3.6880     0.6572    37.2620 </r>
       <r>     3.8537     0.4015    37.4645 </r>
       <r>     4.0195     0.5641    37.6445 </r>
       <r>     4.1852     0.9569    37.8678 </r>
       <r>     4.3510     2.6159    38.4846 </r>
       <r>     4.5167     0.9066    38.9972 </r>
       <r>     4.6825     0.7484    39.3179 </r>
       <r>     4.8482     0.4375    39.4858 </r>
       <r>     5.0140     0.8455    39.7371 </r>
       <r>     5.1797     0.4771    39.9668 </r>
       <r>     5.3455     0.0616    39.9847 </r>
       <r>     5.5112     0.0000    40.0000 </r>
       <r>     5.6770     0.0000    40.0000 </r>
       <r>     5.8427     0.5276    40.1028 </r>
       <r>     6.0085     0.2449    40.1988 </r>
       <r>     6.1742     0.8519    40.3708 </r>
       <r>     6.3400     0.6878    40.6701 </r>
       <r>     6.5057     0.4889    40.8719 </r>
       <r>     6.6715     1.0846    41.2512 </r>
       <r>     6.8372     1.6374    41.7408 </r>
       <r>     7.0030     0.7614    42.0497 </r>
       <r>     7.1687     0.5529    42.2447 </r>
       <r>     7.3345     0.7897    42.5850 </r>
       <r>     7.5002     0.6875    42.9048 </r>
       <r>     7.6660     0.9147    43.2435 </r>
       <r>     7.8317     2.0640    43.8982 </r>
       <r>     7.9975     0.8815    44.2839 </r>
       <r>     8.1632     1.4616    44.7474 </r>
       <r>     8.3290     0.9573    45.1179 </r>
       <r>     8.4947     1.0273    45.4509 </r>
       <r>     8.6605     1.3762    45.8250 </r>
       <r>     8.8262     0.9415    46.1458 </r>
       <r>     8.9920     1.4724    46.6012 </r>
       <r>     9.1577     0.8265    46.8564 </r>
       <r>     9.3235     0.9021    47.2465 </r>
       <r>     9.4892     1.2047    47.6436 </r>
       <r>     9.6550     0.9880    48.0056 </r>
       <r>     9.8207     0.8107    48.2925 </r>
       <r>     9.9865     1.6342    48.7556 </r>
       <r>    10.1522     2.9399    49.5689 </r>
       <r>    10.3180     1.1247    50.3344 </r>
       <r>    10.4837     0.7905    50.6667 </r>
       <r>    10.6495     1.1264    51.0183 </r>
       <r>    10.8152     1.7639    51.5883 </r>
       <r>    10.9810     1.2529    52.0087 </r>
       <r>    11.1467     0.8810    52.3450 </r>
       <r>    11.3125     0.8390    52.6238 </r>
       <r>    11.4782     1.1550    52.9670 </r>
       <r>    11.6440     1.4115    53.3921 </r>
       <r>    11.8097     0.8543    53.6824 </r>
       <r>    11.9755     1.1458    54.1134 </r>
       <r>    12.1412     1.0957    54.4724 </r>
       <r>    12.3070     0.6613    54.8137 </r>
       <r>    12.4727     0.6812    55.0517 </r>
       <r>    12.6385     0.7415    55.3066 </r>
       <r>    12.8042     1.0953    55.6918 </r>
       <r>    12.9700     0.8247    55.9734 </r>
       <r>    13.1357     0.7368    56.2140 </r>
       <r>    13.3015     0.9470    56.4580 </r>
       <r>    13.4672     0.6561    56.6751 </r>
       <r>    13.6330     0.6506    56.8936 </r>
       <r>    13.7987     1.0721    57.2185 </r>
       <r>    13.9645     1.5106    57.6586 </r>
       <r>    14.1302     1.1450    58.0112 </r>
       <r>    14.2960     0.8374    58.2919 </r>
       <r>    14.4617     1.9836    58.7982 </r>
       <r>    14.6275     1.2484    59.3753 </r>
       <r>    14.7932     1.5002    59.7997 </r>
       <r>    14.9590     1.1808    60.2773 </r>
       <r>    15.1247     1.3528    60.7957 </r>
       <r>    15.2905     1.4749    61.3312 </r>
       <r>    15.4562     1.0763    61.8468 </r>
       <r>    15.6220     2.1388    62.4412 </r>
       <r>    15.7877     2.0277    63.0555 </r>
       <r>    15.9535     1.8985    63.6769 </r>
       <r>    16.1192     1.5132    64.1692 </r>
       <r>    16.2850     1.8239    64.9043 </r>
       <r>    16.4507     1.5727    65.3984 </r>
       <r>    16.6165     2.4869    66.2591 </r>
       <r>    16.7822     1.9806    66.9711 </r>
       <r>    16.9480     2.2847    67.7358 </r>
       <r>    17.1137     1.6677    68.3172 </r>
       <r>    17.2795     1.7741    68.9522 </r>
       <r>    17.4452     1.2554    69.4326 </r>
       <r>    17.6110     1.5324    69.9275 </r>
       <r>    17.7767     1.4239    70.3687 </r>
       <r>    17.9425     1.9093    70.9338 </r>
       <r>    18.1082     1.9583    71.5338 </r>
       <r>    18.2740     1.2327    72.0666 </r>
       <r>    18.4397     1.2710    72.4811 </r>
       <r>    18.6055     0.8997    72.8583 </r>
       <r>    18.7712     1.6493    73.3499 </r>
       <r>    18.9370     2.0362    73.8681 </r>
       <r>    19.1027     1.7187    74.4430 </r>
       <r>    19.2685     1.4679    74.8811 </r>
       <r>    19.4342     1.6526    75.4933 </r>
       <r>    19.6000     2.4053    76.2609 </r>
       <r>    19.7657     1.3487    76.7286 </r>
       <r>    19.9315     1.2816    77.1716 </r>
       <r>    20.0972     1.8206    77.6793 </r>
       <r>    20.2630     1.9032    78.3257 </r>
       <r>    20.4287     1.8933    78.9618 </r>
       <r>    20.5945     1.8188    79.5515 </r>
       <r>    20.7602     1.7015    80.1392 </r>
       <r>    20.9260     1.1628    80.6570 </r>
       <r>    21.0917     2.0032    81.3933 </r>
       <r>    21.2575     1.8929    81.9974 </r>
       <r>    21.4232     1.5655    82.6115 </r>
       <r>    21.5890     1.8415    83.1879 </r>
       <r>    21.7547     1.7598    83.8784 </r>
       <r>    21.9205     1.6191    84.5949 </r>
       <r>    22.0862     1.6174    85.2273 </r>
       <r>    22.2520     1.6385    85.7971 </r>
       <r>    22.4177     1.8509    86.3221 </r>
       <r>    22.5835     1.2311    86.8418 </r>
       <r>    22.7492     1.2005    87.2296 </r>
       <r>    22.9150     1.3941    87.6954 </r>
       <r>    23.0807     1.2858    88.1315 </r>
       <r>    23.2465     1.6516    88.6462 </r>
       <r>    23.4122     1.3182    89.0705 </r>
       <r>    23.5780     1.1243    89.4823 </r>
       <r>    23.7437     2.4469    90.2372 </r>
       <r>    23.9095     1.5953    90.8665 </r>
       <r>    24.0752     1.0295    91.3135 </r>
       <r>    24.2410     1.5823    91.7929 </r>
       <r>    24.4067     0.9579    92.1486 </r>
       <r>    24.5725     1.1026    92.4991 </r>
       <r>    24.7382     0.7754    92.7663 </r>
       <r>    24.9040     1.0181    93.0871 </r>
       <r>    25.0697     1.0159    93.4235 </r>
       <r>    25.2355     0.7305    93.6874 </r>
       <r>    25.4012     0.4870    93.8766 </r>
       <r>    25.5670     0.7470    94.0881 </r>
       <r>    25.7327     0.5104    94.3040 </r>
       <r>    25.8985     0.3551    94.4364 </r>
       <r>    26.0642     0.8197    94.7124 </r>
       <r>    26.2300     0.4138    94.8390 </r>
       <r>    26.3957     0.4577    94.9483 </r>
       <r>    26.5615     0.2541    95.0574 </r>
       <r>    26.7272     0.3546    95.1659 </r>
       <r>    26.8930     0.4282    95.2699 </r>
       <r>    27.0587     0.3935    95.4071 </r>
       <r>    27.2245     0.2961    95.5032 </r>
       <r>    27.3902     0.2885    95.5988 </r>
       <r>    27.5560     0.1994    95.6606 </r>
       <r>    27.7217     0.2129    95.7751 </r>
       <r>    27.8875     0.2092    95.8765 </r>
       <r>    28.0532     0.0653    95.9139 </r>
       <r>    28.2190     0.0534    95.9323 </r>
       <r>    28.3847     0.0134    95.9512 </r>
       <r>    28.5505     0.0616    95.9745 </r>
       <r>    28.7162     0.0308    95.9796 </r>
       <r>    28.8820     0.0001    95.9796 </r>
       <r>    29.0477     0.0000    95.9847 </r>
       <r>    29.2135     0.0000    95.9847 </r>
       <r>    29.3792     0.0000    95.9898 </r>
       <r>    29.5450     0.0308    95.9949 </r>
       <r>    29.7108     0.0000    96.0000 </r>
       <r>    29.8765     0.0000    96.0000 </r>
       <r>    30.0423     0.0000    96.0000 </r>
       <r>    30.2080     0.0000    96.0000 </r>
       <r>    30.3738     0.0000    96.0000 </r>
       <r>    30.5395     0.0000    96.0000 </r>
       <r>    30.7053     0.0000    96.0000 </r>
       <r>    30.8710     0.0000    96.0000 </r>
       <r>    31.0368     0.0000    96.0000 </r>
       <r>    31.2025     0.0000    96.0000 </r>
       <r>    31.3683     0.0000    96.0000 </r>
       <r>    31.5340     0.0000    96.0000 </r>
       <r>    31.6998     0.0000    96.0000 </r>
       <r>    31.8655     0.0000    96.0000 </r>
      </set>
     </set>
    </array>
   </total>
  </dos>
 </calculation>
 <structure name="finalpos" >
  <crystal>
   <varray name="basis" >
    <v>       2.13552400      -5.90816938      -0.00000000 </v>
    <v>       2.13552401       5.90816938       0.00000000 </v>
    <v>       0.00000000       0.00000000       4.24739298 </v>
   </varray>
   <i name="volume">    107.17903332 </i>
   <varray name="rec_basis" >
    <v>       0.23413457      -0.08462858       0.00000000 </v>
    <v>       0.23413457       0.08462858      -0.00000000 </v>
    <v>      -0.00000000      -0.00000000       0.23543854 </v>
   </varray>
  </crystal>
  <varray name="positions" >
   <v>       0.37512364       0.62487636       0.75000000 </v>
   <v>       0.62487636       0.37512364       0.25000000 </v>
   <v>       0.14341737       0.85658263       0.75000000 </v>
   <v>       0.85658263       0.14341737       0.25000000 </v>
  </varray>
 </structure>
</modeling>
