 vasp.5.4.4.18Apr17-6-g9f103f2a35 (build Mar 20 2018 18:07:30) complex           
 executed on             LinuxGNU date 2020.07.06  22:42:43
 running on    8 total cores
 distrk:  each k-point on    8 cores,    1 groups
 distr:  one band on NCORES_PER_BAND=   2 cores,    4 groups


--------------------------------------------------------------------------------------------------------


 INCAR:
 POTCAR:    PAW_PBE Bi 08Apr2002                  
 POTCAR:    PAW_PBE Te 08Apr2002                  
 POTCAR:    PAW_PBE Bi 08Apr2002                  
   VRHFIN =Bi:                                                                  
   LEXCH  = PE                                                                  
   EATOM  =   150.8133 eV,   11.0845 Ry                                         
                                                                                
   TITEL  = PAW_PBE Bi 08Apr2002                                                
   LULTRA =        F    use ultrasoft PP ?                                      
   IUNSCR =        1    unscreen: 0-lin 1-nonlin 2-no                           
   RPACOR =    2.200    partial core radius                                     
   POMASS =  208.980; ZVAL   =    5.000    mass and valenz                      
   RCORE  =    3.000    outmost cutoff radius                                   
   RWIGS  =    3.090; RWIGS  =    1.635    wigner-seitz radius (au A)           
   ENMAX  =  105.037; ENMIN  =   78.777 eV                                      
   ICORE  =        3    local potential                                         
   LCOR   =        T    correct aug charges                                     
   LPAW   =        T    paw PP                                                  
   EAUG   =  265.427                                                            
   DEXC   =    0.000                                                            
   RMAX   =    3.067    core radius for proj-oper                               
   RAUG   =    1.300    factor for augmentation sphere                          
   RDEP   =    3.012    radius for radial grids                                 
   RDEPT  =    2.604    core radius for aug-charge                              
                                                                                
   Atomic configuration                                                         
   17 entries                                                                   
     n  l   j            E        occ.                                          
     1  0  0.50    -90639.6582   2.0000                                         
     2  0  0.50    -16282.4667   2.0000                                         
     2  1  1.50    -13922.8287   6.0000                                         
     3  0  0.50     -3930.4763   2.0000                                         
     3  1  1.50     -3256.7013   6.0000                                         
     3  2  2.50     -2581.6169  10.0000                                         
     4  0  0.50      -902.2614   2.0000                                         
     4  1  1.50      -681.5915   6.0000                                         
     4  2  2.50      -429.8249  10.0000                                         
     4  3  3.50      -152.6004  14.0000                                         
     5  0  0.50      -157.7156   2.0000                                         
     5  1  1.50       -95.8054   6.0000                                         
     5  2  2.50       -27.0806  10.0000                                         
     6  0  0.50       -14.4732   2.0000                                         
     6  1  1.50        -4.5702   3.0000                                         
     6  2  2.50        -2.7212   0.0000                                         
     5  3  2.50        -2.7212   0.0000                                         
   Description                                                                  
     l       E           TYP  RCUT    TYP  RCUT                                 
     0    -14.4732299     23  3.000                                             
     0    -12.2452434     23  3.000                                             
     1     -4.5701666     23  3.000                                             
     1    -13.6058260     23  3.000                                             
     2     -2.7211652     23  3.000                                             
     3     -1.3605826      7  3.000                                             
  local pseudopotential read in
  partial core-charges read in
  partial kinetic energy density read in
  kinetic energy density of atom read in
  atomic valenz-charges read in
  non local Contribution for L=           0  read in
    real space projection operators read in
  non local Contribution for L=           0  read in
    real space projection operators read in
  non local Contribution for L=           1  read in
    real space projection operators read in
  non local Contribution for L=           1  read in
    real space projection operators read in
  non local Contribution for L=           2  read in
    real space projection operators read in
    PAW grid and wavefunctions read in

   number of l-projection  operators is LMAX  =           5
   number of lm-projection operators is LMMAX =          13

 POTCAR:    PAW_PBE Te 08Apr2002                  
   VRHFIN =Te: s2p4                                                             
   LEXCH  = PE                                                                  
   EATOM  =   223.2721 eV,   16.4100 Ry                                         
                                                                                
   TITEL  = PAW_PBE Te 08Apr2002                                                
   LULTRA =        F    use ultrasoft PP ?                                      
   IUNSCR =        1    unscreen: 0-lin 1-nonlin 2-no                           
   RPACOR =    2.200    partial core radius                                     
   POMASS =  127.600; ZVAL   =    6.000    mass and valenz                      
   RCORE  =    2.300    outmost cutoff radius                                   
   RWIGS  =    2.900; RWIGS  =    1.535    wigner-seitz radius (au A)           
   ENMAX  =  174.982; ENMIN  =  131.236 eV                                      
   ICORE  =        3    local potential                                         
   LCOR   =        T    correct aug charges                                     
   LPAW   =        T    paw PP                                                  
   EAUG   =  368.792                                                            
   DEXC   =    0.000                                                            
   RMAX   =    2.345    core radius for proj-oper                               
   RAUG   =    1.300    factor for augmentation sphere                          
   RDEP   =    2.397    radius for radial grids                                 
   RDEPT  =    2.174    core radius for aug-charge                              
                                                                                
   Atomic configuration                                                         
   13 entries                                                                   
     n  l   j            E        occ.                                          
     1  0  0.50    -31621.2075   2.0000                                         
     2  0  0.50     -4848.7941   2.0000                                         
     2  1  1.50     -4352.1960   6.0000                                         
     3  0  0.50      -964.9612   2.0000                                         
     3  1  1.50      -803.6179   6.0000                                         
     3  2  2.50      -559.8710  10.0000                                         
     4  0  0.50      -164.3522   2.0000                                         
     4  1  1.50      -114.3756   6.0000                                         
     4  2  2.50       -41.6483  10.0000                                         
     5  0  0.50       -15.1072   2.0000                                         
     5  1  0.50        -5.9526   4.0000                                         
     5  2  1.50        -5.4423   0.0000                                         
     4  3  2.50        -5.4423   0.0000                                         
   Description                                                                  
     l       E           TYP  RCUT    TYP  RCUT                                 
     0    -15.1072389     23  2.300                                             
     0    -16.4678215     23  2.300                                             
     1     -5.9526306     23  2.300                                             
     1     -2.4873968     23  2.300                                             
     2     -5.4423304     23  2.300                                             
     3     -1.3605826     23  2.300                                             
  local pseudopotential read in
  partial core-charges read in
  partial kinetic energy density read in
  atomic valenz-charges read in
  non local Contribution for L=           0  read in
    real space projection operators read in
  non local Contribution for L=           0  read in
    real space projection operators read in
  non local Contribution for L=           1  read in
    real space projection operators read in
  non local Contribution for L=           1  read in
    real space projection operators read in
  non local Contribution for L=           2  read in
    real space projection operators read in
    PAW grid and wavefunctions read in

   number of l-projection  operators is LMAX  =           5
   number of lm-projection operators is LMMAX =          13

 WARNING: PSMAXN for non-local potential too small
          PSMAXN should be >   12.549083372950625       NTYP=           1
  PAW_PBE Bi 08Apr2002                  :
 energy of atom  1       EATOM= -150.8133
 kinetic energy error for atom=    0.0000 (will be added to EATOM!!)
  PAW_PBE Te 08Apr2002                  :
 energy of atom  2       EATOM= -223.2721
 kinetic energy error for atom=    0.0004 (will be added to EATOM!!)


 POSCAR: Bi2 Te3                                 
  positions in direct lattice
  No initial velocities read in
 exchange correlation table for  LEXCH =        8
   RHO(1)=    0.500       N(1)  =     2000
   RHO(2)=  100.500       N(2)  =     4000



--------------------------------------------------------------------------------------------------------


 ion  position               nearest neighbor table
   1  0.400  0.400  0.400-   5 3.08   5 3.08   5 3.08   3 3.26   3 3.26   3 3.26
   2  0.600  0.600  0.600-   4 3.08   4 3.08   4 3.08   3 3.26   3 3.26   3 3.26
   3  0.000  0.000  0.000-   2 3.26   2 3.26   1 3.26   1 3.26   2 3.26   1 3.26
   4  0.210  0.210  0.210-   2 3.08   2 3.08   2 3.08
   5  0.790  0.790  0.790-   1 3.08   1 3.08   1 3.08


IMPORTANT INFORMATION: All symmetrisations will be switched off!
NOSYMM: (Re-)initialisation of all symmetry stuff for point group C_1.



 KPOINTS: EMC 1.51py                              
  k-points in reciprocal lattice
Space group operators:
 irot       det(A)        alpha          n_x          n_y          n_z        tau_x        tau_y        tau_z
    1     1.000000     0.000000     1.000000     0.000000     0.000000     0.000000     0.000000     0.000000


--------------------------------------------------------------------------------------------------------




 Dimension of arrays:
   k-points           NKPTS =     61   k-points in BZ     NKDIM =     61   number of bands    NBANDS=     88
   number of dos      NEDOS =    301   number of ions     NIONS =      5
   non local maximal  LDIM  =      5   non local SUM 2l+1 LMDIM =     13
   total plane-waves  NPLWV = 592704
   max r-space proj   IRMAX =      1   max aug-charges    IRDMAX= ******
   dimension x,y,z NGX =    84 NGY =   84 NGZ =   84
   dimension x,y,z NGXF=   168 NGYF=  168 NGZF=  168
   support grid    NGXF=   336 NGYF=  336 NGZF=  336
   ions per type =               2   3
   NGX,Y,Z   is equivalent  to a cutoff of  13.35, 13.35, 13.35 a.u.
   NGXF,Y,Z  is equivalent  to a cutoff of  26.70, 26.70, 26.70 a.u.

 SYSTEM =  BiTe                                    
 POSCAR =  Bi2 Te3                                 

 Startparameter for this run:
   NWRITE =      2    write-flag & timer
   PREC   = accura    normal or accurate (medium, high low for compatibility)
   ISTART =      0    job   : 0-new  1-cont  2-samecut
   ICHARG =     11    charge: 1-file 2-atom 10-const
   ISPIN  =      1    spin polarized calculation?
   LNONCOLLINEAR =      T non collinear calculations
   LSORBIT =      T    spin-orbit coupling
   INIWAV =      1    electr: 0-lowe 1-rand  2-diag
   LASPH  =      F    aspherical Exc in radial PAW
   METAGGA=      F    non-selfconsistent MetaGGA calc.

 Electronic Relaxation 1
   ENCUT  =  600.0 eV  44.10 Ry    6.64 a.u.  20.89 20.89 20.89*2*pi/ulx,y,z
   ENINI  =  600.0     initial cutoff
   ENAUG  =  368.8 eV  augmentation charge cutoff
   NELM   =     60;   NELMIN=  2; NELMDL=  0     # of ELM steps 
   EDIFF  = 0.1E-06   stopping-criterion for ELM
   LREAL  =      F    real-space projection
   NLSPLINE    = F    spline interpolate recip. space projectors
   LCOMPAT=      F    compatible to vasp.4.4
   GGA_COMPAT  = F    GGA compatible to vasp.4.4-vasp.4.6
   LMAXPAW     = -100 max onsite density
   LMAXMIX     =    4 max onsite mixed and CHGCAR
   VOSKOWN=      0    Vosko Wilk Nusair interpolation
   ROPT   =    0.00000   0.00000
 Ionic relaxation
   EDIFFG = -.1E-02   stopping-criterion for IOM
   NSW    =      0    number of steps for IOM
   NBLOCK =      1;   KBLOCK =      1    inner block; outer block 
   IBRION =     -1    ionic relax: 0-MD 1-quasi-New 2-CG
   NFREE  =      0    steps in history (QN), initial steepest desc. (CG)
   ISIF   =      2    stress and relaxation
   IWAVPR =     10    prediction:  0-non 1-charg 2-wave 3-comb
   ISYM   =     -1    0-nonsym 1-usesym 2-fastsym
   LCORR  =      T    Harris-Foulkes like correction to forces

   POTIM  = 0.5000    time-step for ionic-motion
   TEIN   =    0.0    initial temperature
   TEBEG  =    0.0;   TEEND  =   0.0 temperature during run
   SMASS  =  -3.00    Nose mass-parameter (am)
   estimated Nose-frequenzy (Omega)   =  0.10E-29 period in steps =****** mass=  -0.250E-26a.u.
   SCALEE = 1.0000    scale energy and forces
   NPACO  =    256;   APACO  = 16.0  distance and # of slots for P.C.
   PSTRESS=    0.0 pullay stress

  Mass of Ions in am
   POMASS = 208.98127.60
  Ionic Valenz
   ZVAL   =   5.00  6.00
  Atomic Wigner-Seitz radii
   RWIGS  =  -1.00 -1.00
  virtual crystal weights 
   VCA    =   1.00  1.00
   NELECT =      28.0000    total number of electrons
   NUPDOWN=      -1.0000    fix difference up-down

 DOS related values:
   EMIN   =  10.00;   EMAX   =-10.00  energy-range for DOS
   EFERMI =   0.00
   ISMEAR =     0;   SIGMA  =   0.01  broadening in eV -4-tet -1-fermi 0-gaus

 Electronic relaxation 2 (details)
   IALGO  =     58    algorithm
   LDIAG  =      T    sub-space diagonalisation (order eigenvalues)
   LSUBROT=      F    optimize rotation matrix (better conditioning)
   TURBO    =      0    0=normal 1=particle mesh
   IRESTART =      0    0=no restart 2=restart with 2 vectors
   NREBOOT  =      0    no. of reboots
   NMIN     =      0    reboot dimension
   EREF     =   0.00    reference energy to select bands
   IMIX   =      4    mixing-type and parameters
     AMIX     =   0.40;   BMIX     =  1.00
     AMIX_MAG =   1.60;   BMIX_MAG =  1.00
     AMIN     =   0.10
     WC   =   100.;   INIMIX=   1;  MIXPRE=   1;  MAXMIX= -45

 Intra band minimization:
   WEIMIN = 0.0000     energy-eigenvalue tresh-hold
   EBREAK =  0.28E-09  absolut break condition
   DEPER  =   0.30     relativ break condition  

   TIME   =   0.40     timestep for ELM

  volume/ion in A,a.u.               =      34.53       232.99
  Fermi-wavevector in a.u.,A,eV,Ry     =   0.892805  1.687157 10.845211  0.797101
  Thomas-Fermi vector in A             =   2.014801

 Write flags
   LWAVE        =      F    write WAVECAR
   LDOWNSAMPLE  =      F    k-point downsampling of WAVECAR
   LCHARG       =      F    write CHGCAR
   LVTOT        =      F    write LOCPOT, total local potential
   LVHAR        =      F    write LOCPOT, Hartree potential only
   LELF         =      F    write electronic localiz. function (ELF)
   LORBIT       =      0    0 simple, 1 ext, 2 COOP (PROOUT), +10 PAW based schemes


 Dipole corrections
   LMONO  =      F    monopole corrections only (constant potential shift)
   LDIPOL =      F    correct potential (dipole corrections)
   IDIPOL =      0    1-x, 2-y, 3-z, 4-all directions 
   EPSILON=  1.0000000 bulk dielectric constant

 Exchange correlation treatment:
   GGA     =    --    GGA type
   LEXCH   =     8    internal setting for exchange type
   VOSKOWN=      0    Vosko Wilk Nusair interpolation
   LHFCALC =     F    Hartree Fock is set to
   LHFONE  =     F    Hartree Fock one center treatment
   AEXX    =    0.0000 exact exchange contribution

 Linear response parameters
   LEPSILON=     F    determine dielectric tensor
   LRPA    =     F    only Hartree local field effects (RPA)
   LNABLA  =     F    use nabla operator in PAW spheres
   LVEL    =     F    velocity operator in full k-point grid
   LINTERFAST=   F  fast interpolation
   KINTER  =     0    interpolate to denser k-point grid
   CSHIFT  =0.1000    complex shift for real part using Kramers Kronig
   OMEGAMAX=  -1.0    maximum frequency
   DEG_THRESHOLD= 0.2000000E-02 threshold for treating states as degnerate
   RTIME   =   -0.100 relaxation time in fs
  (WPLASMAI=    0.000 imaginary part of plasma frequency in eV, 0.658/RTIME)
   DFIELD  = 0.0000000 0.0000000 0.0000000 field for delta impulse in time

 Orbital magnetization related:
   ORBITALMAG=     F  switch on orbital magnetization
   LCHIMAG   =     F  perturbation theory with respect to B field
   DQ        =  0.001000  dq finite difference perturbation B field
   LLRAUG    =     F  two centre corrections for induced B field



--------------------------------------------------------------------------------------------------------


 Static calculation
 charge density and potential remain constant during run
 non collinear spin polarized calculation
 Conjugate gradient for all bands (Freysoldt, et al. PRB 79, 241103 (2009))
 preconditioned conjugated gradient   charged. constant during bandupdate  
 perform sub-space diagonalisation
    before iterative eigenvector-optimisation
 no mixing
 using additional bands           74
 reciprocal scheme for non local part
 use partial core corrections
 calculate Harris-corrections to forces   (improved forces if not selfconsistent)
 use gradient corrections 
 WARNING: stress and forces are not correct
  (second derivative of E(xc) not defined)
 use of overlap-Matrix (Vanderbilt PP)
 Gauss-broadening in eV      SIGMA  =   0.01


--------------------------------------------------------------------------------------------------------


  energy-cutoff  :      600.00
  volume of cell :      172.63
      direct lattice vectors                 reciprocal lattice vectors
    10.222282710 -2.216677340  0.000000000     0.048912754 -0.225562824 -0.125089241
    10.222282710  2.216677340  0.000000000     0.048912754  0.225562824 -0.125089241
     9.741601570  0.000000000  3.809189020    -0.000000000  0.000000000  0.262523071

  length of vectors
    10.459862439 10.459862439 10.459862434     0.262523071  0.262523071  0.262523071



 k-points in units of 2pi/SCALE and weight: EMC 1.51py                              
   0.04891275  0.00000000 -0.02336155       0.016
   0.04289757  0.00000000 -0.02336155       0.016
   0.04590516  0.00000000 -0.02336155       0.016
   0.05192035  0.00000000 -0.02336155       0.016
   0.05492794  0.00000000 -0.02336155       0.016
   0.04891275 -0.00601519 -0.02336155       0.016
   0.04891275 -0.00300759 -0.02336155       0.016
   0.04891275  0.00300759 -0.02336155       0.016
   0.04891275  0.00601519 -0.02336155       0.016
   0.04891275  0.00000000 -0.02937674       0.016
   0.04891275  0.00000000 -0.02636914       0.016
   0.04891275  0.00000000 -0.02035396       0.016
   0.04891275  0.00000000 -0.01734637       0.016
   0.04289757 -0.00601519 -0.02336155       0.016
   0.04590516 -0.00601519 -0.02336155       0.016
   0.05192035 -0.00601519 -0.02336155       0.016
   0.05492794 -0.00601519 -0.02336155       0.016
   0.04289757 -0.00300759 -0.02336155       0.016
   0.04590516 -0.00300759 -0.02336155       0.016
   0.05192035 -0.00300759 -0.02336155       0.016
   0.05492794 -0.00300759 -0.02336155       0.016
   0.04289757  0.00300759 -0.02336155       0.016
   0.04590516  0.00300759 -0.02336155       0.016
   0.05192035  0.00300759 -0.02336155       0.016
   0.05492794  0.00300759 -0.02336155       0.016
   0.04289757  0.00601519 -0.02336155       0.016
   0.04590516  0.00601519 -0.02336155       0.016
   0.05192035  0.00601519 -0.02336155       0.016
   0.05492794  0.00601519 -0.02336155       0.016
   0.04289757  0.00000000 -0.02937674       0.016
   0.04590516  0.00000000 -0.02937674       0.016
   0.05192035  0.00000000 -0.02937674       0.016
   0.05492794  0.00000000 -0.02937674       0.016
   0.04289757  0.00000000 -0.02636914       0.016
   0.04590516  0.00000000 -0.02636914       0.016
   0.05192035  0.00000000 -0.02636914       0.016
   0.05492794  0.00000000 -0.02636914       0.016
   0.04289757  0.00000000 -0.02035396       0.016
   0.04590516  0.00000000 -0.02035396       0.016
   0.05192035  0.00000000 -0.02035396       0.016
   0.05492794  0.00000000 -0.02035396       0.016
   0.04289757  0.00000000 -0.01734637       0.016
   0.04590516  0.00000000 -0.01734637       0.016
   0.05192035  0.00000000 -0.01734637       0.016
   0.05492794  0.00000000 -0.01734637       0.016
   0.04891275 -0.00601519 -0.02937674       0.016
   0.04891275 -0.00300759 -0.02937674       0.016
   0.04891275  0.00300759 -0.02937674       0.016
   0.04891275  0.00601519 -0.02937674       0.016
   0.04891275 -0.00601519 -0.02636914       0.016
   0.04891275 -0.00300759 -0.02636914       0.016
   0.04891275  0.00300759 -0.02636914       0.016
   0.04891275  0.00601519 -0.02636914       0.016
   0.04891275 -0.00601519 -0.02035396       0.016
   0.04891275 -0.00300759 -0.02035396       0.016
   0.04891275  0.00300759 -0.02035396       0.016
   0.04891275  0.00601519 -0.02035396       0.016
   0.04891275 -0.00601519 -0.01734637       0.016
   0.04891275 -0.00300759 -0.01734637       0.016
   0.04891275  0.00300759 -0.01734637       0.016
   0.04891275  0.00601519 -0.01734637       0.016

 k-points in reciprocal lattice and weights: EMC 1.51py                              
   0.50000000  0.50000000  0.38750000       0.016
   0.43851108  0.43851108  0.32890246       0.016
   0.46925554  0.46925554  0.35820123       0.016
   0.53074446  0.53074446  0.41679877       0.016
   0.56148892  0.56148892  0.44609754       0.016
   0.51333372  0.48666628  0.38750000       0.016
   0.50666686  0.49333314  0.38750000       0.016
   0.49333314  0.50666686  0.38750000       0.016
   0.48666628  0.51333372  0.38750000       0.016
   0.50000000  0.50000000  0.36458702       0.016
   0.50000000  0.50000000  0.37604351       0.016
   0.50000000  0.50000000  0.39895649       0.016
   0.50000000  0.50000000  0.41041298       0.016
   0.45184480  0.42517735  0.32890246       0.016
   0.48258926  0.45592181  0.35820123       0.016
   0.54407819  0.51741074  0.41679877       0.016
   0.57482265  0.54815520  0.44609754       0.016
   0.44517794  0.43184422  0.32890246       0.016
   0.47592240  0.46258868  0.35820123       0.016
   0.53741132  0.52407760  0.41679877       0.016
   0.56815578  0.55482206  0.44609754       0.016
   0.43184422  0.44517794  0.32890246       0.016
   0.46258868  0.47592240  0.35820123       0.016
   0.52407760  0.53741132  0.41679877       0.016
   0.55482206  0.56815578  0.44609754       0.016
   0.42517735  0.45184480  0.32890246       0.016
   0.45592181  0.48258926  0.35820123       0.016
   0.51741074  0.54407819  0.41679877       0.016
   0.54815520  0.57482265  0.44609754       0.016
   0.43851108  0.43851108  0.30598949       0.016
   0.46925554  0.46925554  0.33528825       0.016
   0.53074446  0.53074446  0.39388579       0.016
   0.56148892  0.56148892  0.42318456       0.016
   0.43851108  0.43851108  0.31744598       0.016
   0.46925554  0.46925554  0.34674474       0.016
   0.53074446  0.53074446  0.40534228       0.016
   0.56148892  0.56148892  0.43464105       0.016
   0.43851108  0.43851108  0.34035895       0.016
   0.46925554  0.46925554  0.36965772       0.016
   0.53074446  0.53074446  0.42825526       0.016
   0.56148892  0.56148892  0.45755402       0.016
   0.43851108  0.43851108  0.35181544       0.016
   0.46925554  0.46925554  0.38111421       0.016
   0.53074446  0.53074446  0.43971175       0.016
   0.56148892  0.56148892  0.46901051       0.016
   0.51333372  0.48666628  0.36458702       0.016
   0.50666686  0.49333314  0.36458702       0.016
   0.49333314  0.50666686  0.36458702       0.016
   0.48666628  0.51333372  0.36458702       0.016
   0.51333372  0.48666628  0.37604351       0.016
   0.50666686  0.49333314  0.37604351       0.016
   0.49333314  0.50666686  0.37604351       0.016
   0.48666628  0.51333372  0.37604351       0.016
   0.51333372  0.48666628  0.39895649       0.016
   0.50666686  0.49333314  0.39895649       0.016
   0.49333314  0.50666686  0.39895649       0.016
   0.48666628  0.51333372  0.39895649       0.016
   0.51333372  0.48666628  0.41041298       0.016
   0.50666686  0.49333314  0.41041298       0.016
   0.49333314  0.50666686  0.41041298       0.016
   0.48666628  0.51333372  0.41041298       0.016

 position of ions in fractional coordinates (direct lattice) 
   0.39979833  0.39979833  0.39979833
   0.60020167  0.60020167  0.60020167
   0.00000000  0.00000000  0.00000000
   0.21048582  0.21048582  0.21048582
   0.78951418  0.78951418  0.78951418

 position of ions in cartesian coordinates  (Angst):
  12.06837915  0.00000000  1.52290741
  18.11778784  0.00000000  2.28628161
   0.00000000  0.00000000  0.00000000
   6.35376011  0.00000000  0.80178027
  23.83240688  0.00000000  3.00740875

 Euler angles ALPHA=     0.0000000  BETA=     0.0000000

 transformation matrix from SAXIS to cartesian coordinates
 ---------------------------------------------------------
     1.0000000 m_x    -0.0000000 m_y     0.0000000 m_z
     0.0000000 m_x     1.0000000 m_y     0.0000000 m_z
    -0.0000000 m_x     0.0000000 m_y     1.0000000 m_z

 transformation matrix from cartesian coordinates to SAXIS
 ---------------------------------------------------------
     1.0000000 m_x     0.0000000 m_y    -0.0000000 m_z
    -0.0000000 m_x     1.0000000 m_y     0.0000000 m_z
     0.0000000 m_x     0.0000000 m_y     1.0000000 m_z




--------------------------------------------------------------------------------------------------------


 k-point  1 :   0.5000 0.5000 0.3875  plane waves:   11472
 k-point  2 :   0.4385 0.4385 0.3289  plane waves:   11494
 k-point  3 :   0.4693 0.4693 0.3582  plane waves:   11492
 k-point  4 :   0.5307 0.5307 0.4168  plane waves:   11478
 k-point  5 :   0.5615 0.5615 0.4461  plane waves:   11472
 k-point  6 :   0.5133 0.4867 0.3875  plane waves:   11488
 k-point  7 :   0.5067 0.4933 0.3875  plane waves:   11486
 k-point  8 :   0.4933 0.5067 0.3875  plane waves:   11486
 k-point  9 :   0.4867 0.5133 0.3875  plane waves:   11488
 k-point 10 :   0.5000 0.5000 0.3646  plane waves:   11484
 k-point 11 :   0.5000 0.5000 0.3760  plane waves:   11492
 k-point 12 :   0.5000 0.5000 0.3990  plane waves:   11480
 k-point 13 :   0.5000 0.5000 0.4104  plane waves:   11496
 k-point 14 :   0.4518 0.4252 0.3289  plane waves:   11492
 k-point 15 :   0.4826 0.4559 0.3582  plane waves:   11482
 k-point 16 :   0.5441 0.5174 0.4168  plane waves:   11486
 k-point 17 :   0.5748 0.5482 0.4461  plane waves:   11478
 k-point 18 :   0.4452 0.4318 0.3289  plane waves:   11496
 k-point 19 :   0.4759 0.4626 0.3582  plane waves:   11486
 k-point 20 :   0.5374 0.5241 0.4168  plane waves:   11490
 k-point 21 :   0.5682 0.5548 0.4461  plane waves:   11482
 k-point 22 :   0.4318 0.4452 0.3289  plane waves:   11496
 k-point 23 :   0.4626 0.4759 0.3582  plane waves:   11486
 k-point 24 :   0.5241 0.5374 0.4168  plane waves:   11490
 k-point 25 :   0.5548 0.5682 0.4461  plane waves:   11482
 k-point 26 :   0.4252 0.4518 0.3289  plane waves:   11492
 k-point 27 :   0.4559 0.4826 0.3582  plane waves:   11482
 k-point 28 :   0.5174 0.5441 0.4168  plane waves:   11486
 k-point 29 :   0.5482 0.5748 0.4461  plane waves:   11478
 k-point 30 :   0.4385 0.4385 0.3060  plane waves:   11494
 k-point 31 :   0.4693 0.4693 0.3353  plane waves:   11484
 k-point 32 :   0.5307 0.5307 0.3939  plane waves:   11478
 k-point 33 :   0.5615 0.5615 0.4232  plane waves:   11474
 k-point 34 :   0.4385 0.4385 0.3174  plane waves:   11490
 k-point 35 :   0.4693 0.4693 0.3467  plane waves:   11488
 k-point 36 :   0.5307 0.5307 0.4053  plane waves:   11480
 k-point 37 :   0.5615 0.5615 0.4346  plane waves:   11480
 k-point 38 :   0.4385 0.4385 0.3404  plane waves:   11506
 k-point 39 :   0.4693 0.4693 0.3697  plane waves:   11486
 k-point 40 :   0.5307 0.5307 0.4283  plane waves:   11474
 k-point 41 :   0.5615 0.5615 0.4576  plane waves:   11470
 k-point 42 :   0.4385 0.4385 0.3518  plane waves:   11514
 k-point 43 :   0.4693 0.4693 0.3811  plane waves:   11488
 k-point 44 :   0.5307 0.5307 0.4397  plane waves:   11500
 k-point 45 :   0.5615 0.5615 0.4690  plane waves:   11490
 k-point 46 :   0.5133 0.4867 0.3646  plane waves:   11464
 k-point 47 :   0.5067 0.4933 0.3646  plane waves:   11478
 k-point 48 :   0.4933 0.5067 0.3646  plane waves:   11478
 k-point 49 :   0.4867 0.5133 0.3646  plane waves:   11464
 k-point 50 :   0.5133 0.4867 0.3760  plane waves:   11480
 k-point 51 :   0.5067 0.4933 0.3760  plane waves:   11474
 k-point 52 :   0.4933 0.5067 0.3760  plane waves:   11474
 k-point 53 :   0.4867 0.5133 0.3760  plane waves:   11480
 k-point 54 :   0.5133 0.4867 0.3990  plane waves:   11494
 k-point 55 :   0.5067 0.4933 0.3990  plane waves:   11482
 k-point 56 :   0.4933 0.5067 0.3990  plane waves:   11482
 k-point 57 :   0.4867 0.5133 0.3990  plane waves:   11494
 k-point 58 :   0.5133 0.4867 0.4104  plane waves:   11498
 k-point 59 :   0.5067 0.4933 0.4104  plane waves:   11494
 k-point 60 :   0.4933 0.5067 0.4104  plane waves:   11494
 k-point 61 :   0.4867 0.5133 0.4104  plane waves:   11498

 maximum and minimum number of plane-waves per node :      5764     5728

 maximum number of plane-waves:     11514
 maximum index in each direction: 
   IXMAX=   20   IYMAX=   20   IZMAX=   20
   IXMIN=  -21   IYMIN=  -21   IZMIN=  -21


 parallel 3D FFT for wavefunctions:
    minimum data exchange during FFTs selected (reduces bandwidth)
 parallel 3D FFT for charge:
    minimum data exchange during FFTs selected (reduces bandwidth)


 total amount of memory used by VASP MPI-rank0   804901. kBytes
=======================================================================

   base      :      30000. kBytes
   nonl-proj :      36720. kBytes
   fftplans  :     182230. kBytes
   grid      :     180182. kBytes
   one-center:         97. kBytes
   wavefun   :     375672. kBytes

     INWAV:  cpu time    0.0000: real time    0.0001
 initial charge density was supplied:
 number of electron      28.0000001 magnetization      -0.0000580     -0.0000594     -0.0000590
 keeping initial charge density in first step


--------------------------------------------------------------------------------------------------------


 Maximum index for augmentation-charges       317341 (set IRDMAX)


--------------------------------------------------------------------------------------------------------


 First call to EWALD:  gamma=   0.318
 Maximum number of real-space cells 4x 4x 4
 Maximum number of reciprocal cells 5x 5x 5

    FEWALD:  cpu time    0.0006: real time    0.0006


--------------------------------------- Iteration      1(   1)  ---------------------------------------


    POTLOK:  cpu time    2.3378: real time    2.3389
    SETDIJ:  cpu time    3.7771: real time    3.7810
    TRIAL :  cpu time  131.7970: real time  132.1343
    CORREC:  cpu time    0.0013: real time    0.0013
    --------------------------------------------
      LOOP:  cpu time  138.0055: real time  138.3491

 eigenvalue-minimisations  : 10736
 total energy-change (2. order) : 0.1358998E+03  (-0.1448422E+04)
 number of electron      28.0000001 magnetization      -0.0000580     -0.0000594     -0.0000590
 augmentation part       28.0000001 magnetization      -0.0000580     -0.0000594     -0.0000590

 Free energy of the ion-electron system (eV)
  ---------------------------------------------------
  alpha Z        PSCENC =         5.99831677
  Ewald energy   TEWEN  =      -983.58522533
  -Hartree energ DENC   =       -59.98562904
  -exchange      EXHF   =         0.00000000
  -V(xc)+E(xc)   XCENC  =      -303.85049003
  PAW double counting   =      1910.19755357    -1561.17602897
  entropy T*S    EENTRO =        -0.00019818
  eigenvalues    EBANDS =       156.86000304
  atomic energy  EATOM  =       971.44149227
  ---------------------------------------------------
  free energy    TOTEN  =       135.89979410 eV

  energy without entropy =      135.89999228  energy(sigma->0) =      135.89989319


--------------------------------------------------------------------------------------------------------




--------------------------------------- Iteration      1(   2)  ---------------------------------------


    TRIAL :  cpu time  150.4360: real time  150.7540
    CORREC:  cpu time    0.0013: real time    0.0013
    --------------------------------------------
      LOOP:  cpu time  150.4375: real time  150.7554

 eigenvalue-minimisations  : 13152
 total energy-change (2. order) :-0.1290612E+03  (-0.1176265E+03)
 number of electron      28.0000001 magnetization      -0.0000580     -0.0000594     -0.0000590
 augmentation part       28.0000001 magnetization      -0.0000580     -0.0000594     -0.0000590

 Free energy of the ion-electron system (eV)
  ---------------------------------------------------
  alpha Z        PSCENC =         5.99831677
  Ewald energy   TEWEN  =      -983.58522533
  -Hartree energ DENC   =       -59.98562904
  -exchange      EXHF   =         0.00000000
  -V(xc)+E(xc)   XCENC  =      -303.85049003
  PAW double counting   =      1910.19755357    -1561.17602897
  entropy T*S    EENTRO =        -0.00012253
  eigenvalues    EBANDS =        27.79876971
  atomic energy  EATOM  =       971.44149227
  ---------------------------------------------------
  free energy    TOTEN  =         6.83863643 eV

  energy without entropy =        6.83875895  energy(sigma->0) =        6.83869769


--------------------------------------------------------------------------------------------------------




--------------------------------------- Iteration      1(   3)  ---------------------------------------


    TRIAL :  cpu time  146.1485: real time  146.4494
    CORREC:  cpu time    0.0004: real time    0.0004
    --------------------------------------------
      LOOP:  cpu time  146.1491: real time  146.4500

 eigenvalue-minimisations  : 12600
 total energy-change (2. order) :-0.1229312E+02  (-0.1194486E+02)
 number of electron      28.0000001 magnetization      -0.0000580     -0.0000594     -0.0000590
 augmentation part       28.0000001 magnetization      -0.0000580     -0.0000594     -0.0000590

 Free energy of the ion-electron system (eV)
  ---------------------------------------------------
  alpha Z        PSCENC =         5.99831677
  Ewald energy   TEWEN  =      -983.58522533
  -Hartree energ DENC   =       -59.98562904
  -exchange      EXHF   =         0.00000000
  -V(xc)+E(xc)   XCENC  =      -303.85049003
  PAW double counting   =      1910.19755357    -1561.17602897
  entropy T*S    EENTRO =        -0.00000000
  eigenvalues    EBANDS =        15.50552849
  atomic energy  EATOM  =       971.44149227
  ---------------------------------------------------
  free energy    TOTEN  =        -5.45448226 eV

  energy without entropy =       -5.45448226  energy(sigma->0) =       -5.45448226


--------------------------------------------------------------------------------------------------------




--------------------------------------- Iteration      1(   4)  ---------------------------------------


    TRIAL :  cpu time  148.4166: real time  148.8153
    CORREC:  cpu time    0.0005: real time    0.0005
    --------------------------------------------
      LOOP:  cpu time  148.4173: real time  148.8160

 eigenvalue-minimisations  : 12888
 total energy-change (2. order) :-0.3381527E+00  (-0.3378305E+00)
 number of electron      28.0000001 magnetization      -0.0000580     -0.0000594     -0.0000590
 augmentation part       28.0000001 magnetization      -0.0000580     -0.0000594     -0.0000590

 Free energy of the ion-electron system (eV)
  ---------------------------------------------------
  alpha Z        PSCENC =         5.99831677
  Ewald energy   TEWEN  =      -983.58522533
  -Hartree energ DENC   =       -59.98562904
  -exchange      EXHF   =         0.00000000
  -V(xc)+E(xc)   XCENC  =      -303.85049003
  PAW double counting   =      1910.19755357    -1561.17602897
  entropy T*S    EENTRO =        -0.00000000
  eigenvalues    EBANDS =        15.16737581
  atomic energy  EATOM  =       971.44149227
  ---------------------------------------------------
  free energy    TOTEN  =        -5.79263494 eV

  energy without entropy =       -5.79263494  energy(sigma->0) =       -5.79263494


--------------------------------------------------------------------------------------------------------




--------------------------------------- Iteration      1(   5)  ---------------------------------------


    TRIAL :  cpu time  142.5940: real time  142.9061
    CORREC:  cpu time    0.0006: real time    0.0006
    --------------------------------------------
      LOOP:  cpu time  142.5947: real time  142.9068

 eigenvalue-minimisations  : 12136
 total energy-change (2. order) :-0.7735851E-02  (-0.7735407E-02)
 number of electron      28.0000001 magnetization      -0.0000580     -0.0000594     -0.0000590
 augmentation part       28.0000001 magnetization      -0.0000580     -0.0000594     -0.0000590

 Free energy of the ion-electron system (eV)
  ---------------------------------------------------
  alpha Z        PSCENC =         5.99831677
  Ewald energy   TEWEN  =      -983.58522533
  -Hartree energ DENC   =       -59.98562904
  -exchange      EXHF   =         0.00000000
  -V(xc)+E(xc)   XCENC  =      -303.85049003
  PAW double counting   =      1910.19755357    -1561.17602897
  entropy T*S    EENTRO =        -0.00000000
  eigenvalues    EBANDS =        15.15963996
  atomic energy  EATOM  =       971.44149227
  ---------------------------------------------------
  free energy    TOTEN  =        -5.80037080 eV

  energy without entropy =       -5.80037080  energy(sigma->0) =       -5.80037080


--------------------------------------------------------------------------------------------------------




--------------------------------------- Iteration      1(   6)  ---------------------------------------


    TRIAL :  cpu time   94.6623: real time   94.8341
    CORREC:  cpu time   25.3787: real time   25.4606
    --------------------------------------------
      LOOP:  cpu time  120.0411: real time  120.2948

 eigenvalue-minimisations  :     0
 total energy-change (2. order) :-0.6366463E-11  (-0.2679659E-03)
 number of electron      28.0000001 magnetization      -0.0000580     -0.0000594     -0.0000590
 augmentation part       28.0000001 magnetization      -0.0000580     -0.0000594     -0.0000590

 Free energy of the ion-electron system (eV)
  ---------------------------------------------------
  alpha Z        PSCENC =         5.99831677
  Ewald energy   TEWEN  =      -983.58522533
  -Hartree energ DENC   =       -59.98562904
  -exchange      EXHF   =         0.00000000
  -V(xc)+E(xc)   XCENC  =      -303.85049003
  PAW double counting   =      1910.19755357    -1561.17602897
  entropy T*S    EENTRO =        -0.00000000
  eigenvalues    EBANDS =        15.15963996
  atomic energy  EATOM  =       971.44149227
  ---------------------------------------------------
  free energy    TOTEN  =        -5.80037080 eV

  energy without entropy =       -5.80037080  energy(sigma->0) =       -5.80037080


--------------------------------------------------------------------------------------------------------




--------------------------------------- Iteration      1(   7)  ---------------------------------------


    TRIAL :  cpu time   94.6900: real time   94.8216
    CORREC:  cpu time   25.3557: real time   25.3863
    --------------------------------------------
      LOOP:  cpu time  120.0461: real time  120.2083

 eigenvalue-minimisations  :     0
 total energy-change (2. order) :-0.2679658E-03  (-0.7199083E-04)
 number of electron      28.0000001 magnetization      -0.0000580     -0.0000594     -0.0000590
 augmentation part       28.0000001 magnetization      -0.0000580     -0.0000594     -0.0000590

 Free energy of the ion-electron system (eV)
  ---------------------------------------------------
  alpha Z        PSCENC =         5.99831677
  Ewald energy   TEWEN  =      -983.58522533
  -Hartree energ DENC   =       -59.98562904
  -exchange      EXHF   =         0.00000000
  -V(xc)+E(xc)   XCENC  =      -303.85049003
  PAW double counting   =      1910.19755357    -1561.17602897
  entropy T*S    EENTRO =        -0.00000000
  eigenvalues    EBANDS =        15.15937199
  atomic energy  EATOM  =       971.44149227
  ---------------------------------------------------
  free energy    TOTEN  =        -5.80063876 eV

  energy without entropy =       -5.80063876  energy(sigma->0) =       -5.80063876


--------------------------------------------------------------------------------------------------------




--------------------------------------- Iteration      1(   8)  ---------------------------------------


    TRIAL :  cpu time   94.6606: real time   94.8111
    CORREC:  cpu time   25.3448: real time   25.4022
    --------------------------------------------
      LOOP:  cpu time  120.0056: real time  120.2135

 eigenvalue-minimisations  :     0
 total energy-change (2. order) :-0.7199065E-04  (-0.2314679E-04)
 number of electron      28.0000001 magnetization      -0.0000580     -0.0000594     -0.0000590
 augmentation part       28.0000001 magnetization      -0.0000580     -0.0000594     -0.0000590

 Free energy of the ion-electron system (eV)
  ---------------------------------------------------
  alpha Z        PSCENC =         5.99831677
  Ewald energy   TEWEN  =      -983.58522533
  -Hartree energ DENC   =       -59.98562904
  -exchange      EXHF   =         0.00000000
  -V(xc)+E(xc)   XCENC  =      -303.85049003
  PAW double counting   =      1910.19755357    -1561.17602897
  entropy T*S    EENTRO =        -0.00000000
  eigenvalues    EBANDS =        15.15930000
  atomic energy  EATOM  =       971.44149227
  ---------------------------------------------------
  free energy    TOTEN  =        -5.80071075 eV

  energy without entropy =       -5.80071075  energy(sigma->0) =       -5.80071075


--------------------------------------------------------------------------------------------------------




--------------------------------------- Iteration      1(   9)  ---------------------------------------


    TRIAL :  cpu time   94.6587: real time   94.8633
    CORREC:  cpu time   25.4047: real time   25.4252
    --------------------------------------------
      LOOP:  cpu time  120.0637: real time  120.2887

 eigenvalue-minimisations  :     0
 total energy-change (2. order) :-0.2314665E-04  (-0.1813293E-05)
 number of electron      28.0000001 magnetization      -0.0000580     -0.0000594     -0.0000590
 augmentation part       28.0000001 magnetization      -0.0000580     -0.0000594     -0.0000590

 Free energy of the ion-electron system (eV)
  ---------------------------------------------------
  alpha Z        PSCENC =         5.99831677
  Ewald energy   TEWEN  =      -983.58522533
  -Hartree energ DENC   =       -59.98562904
  -exchange      EXHF   =         0.00000000
  -V(xc)+E(xc)   XCENC  =      -303.85049003
  PAW double counting   =      1910.19755357    -1561.17602897
  entropy T*S    EENTRO =        -0.00000000
  eigenvalues    EBANDS =        15.15927686
  atomic energy  EATOM  =       971.44149227
  ---------------------------------------------------
  free energy    TOTEN  =        -5.80073390 eV

  energy without entropy =       -5.80073390  energy(sigma->0) =       -5.80073390


--------------------------------------------------------------------------------------------------------




--------------------------------------- Iteration      1(  10)  ---------------------------------------


    TRIAL :  cpu time   94.6419: real time   94.8642
    CORREC:  cpu time   25.3872: real time   25.4172
    --------------------------------------------
      LOOP:  cpu time  120.0294: real time  120.2817

 eigenvalue-minimisations  :     0
 total energy-change (2. order) :-0.1813281E-05  (-0.1447526E-06)
 number of electron      28.0000001 magnetization      -0.0000580     -0.0000594     -0.0000590
 augmentation part       28.0000001 magnetization      -0.0000580     -0.0000594     -0.0000590

 Free energy of the ion-electron system (eV)
  ---------------------------------------------------
  alpha Z        PSCENC =         5.99831677
  Ewald energy   TEWEN  =      -983.58522533
  -Hartree energ DENC   =       -59.98562904
  -exchange      EXHF   =         0.00000000
  -V(xc)+E(xc)   XCENC  =      -303.85049003
  PAW double counting   =      1910.19755357    -1561.17602897
  entropy T*S    EENTRO =        -0.00000000
  eigenvalues    EBANDS =        15.15927504
  atomic energy  EATOM  =       971.44149227
  ---------------------------------------------------
  free energy    TOTEN  =        -5.80073571 eV

  energy without entropy =       -5.80073571  energy(sigma->0) =       -5.80073571


--------------------------------------------------------------------------------------------------------




--------------------------------------- Iteration      1(  11)  ---------------------------------------


    TRIAL :  cpu time   94.6390: real time   94.8703
    CORREC:  cpu time   25.3204: real time   25.3784
    --------------------------------------------
      LOOP:  cpu time  119.9595: real time  120.2489

 eigenvalue-minimisations  :     0
 total energy-change (2. order) :-0.1447499E-06  (-0.2734907E-07)
 number of electron      28.0000001 magnetization      -0.0000580     -0.0000594     -0.0000590
 augmentation part       28.0000001 magnetization      -0.0000580     -0.0000594     -0.0000590

 Free energy of the ion-electron system (eV)
  ---------------------------------------------------
  alpha Z        PSCENC =         5.99831677
  Ewald energy   TEWEN  =      -983.58522533
  -Hartree energ DENC   =       -59.98562904
  -exchange      EXHF   =         0.00000000
  -V(xc)+E(xc)   XCENC  =      -303.85049003
  PAW double counting   =      1910.19755357    -1561.17602897
  entropy T*S    EENTRO =        -0.00000000
  eigenvalues    EBANDS =        15.15927490
  atomic energy  EATOM  =       971.44149227
  ---------------------------------------------------
  free energy    TOTEN  =        -5.80073586 eV

  energy without entropy =       -5.80073586  energy(sigma->0) =       -5.80073586


--------------------------------------------------------------------------------------------------------




--------------------------------------- Iteration      1(  12)  ---------------------------------------


    TRIAL :  cpu time   94.6240: real time   94.7954
    CORREC:  cpu time   25.4038: real time   25.4425
    EDDIAG:  cpu time   39.8143: real time   39.8574
    --------------------------------------------
      LOOP:  cpu time  159.8424: real time  160.0955

 eigenvalue-minimisations  :     0
 total energy-change (2. order) :-0.2734669E-07  (-0.6801179E-08)
 number of electron      28.0000001 magnetization      -0.0000580     -0.0000594     -0.0000590
 augmentation part       28.0000001 magnetization      -0.0000580     -0.0000594     -0.0000590

 Free energy of the ion-electron system (eV)
  ---------------------------------------------------
  alpha Z        PSCENC =         5.99831677
  Ewald energy   TEWEN  =      -983.58522533
  -Hartree energ DENC   =       -59.98562904
  -exchange      EXHF   =         0.00000000
  -V(xc)+E(xc)   XCENC  =      -303.85049003
  PAW double counting   =      1910.19755357    -1561.17602897
  entropy T*S    EENTRO =        -0.00000000
  eigenvalues    EBANDS =        15.15927487
  atomic energy  EATOM  =       971.44149227
  ---------------------------------------------------
  free energy    TOTEN  =        -5.80073588 eV

  energy without entropy =       -5.80073588  energy(sigma->0) =       -5.80073588


--------------------------------------------------------------------------------------------------------


  average scaling for gradient   1.3429


 average (electrostatic) potential at core
  the test charge radii are     1.4024  1.1897
  (the norm of the test charge is              1.0000)
       1 -61.7622       2 -61.7622       3 -88.6317       4 -88.8692       5 -88.8692



 E-fermi :   5.4301     XC(G=0):  -9.1625     alpha+bet :-10.3225


 k-point     1 :       0.5000    0.5000    0.3875
  band No.  band energies     occupation 
      1      -7.4038      1.00000
      2      -7.4038      1.00000
      3      -7.1443      1.00000
      4      -7.1443      1.00000
      5      -5.2751      1.00000
      6      -5.2751      1.00000
      7      -4.0806      1.00000
      8      -4.0806      1.00000
      9      -2.4889      1.00000
     10      -2.4889      1.00000
     11       2.4457      1.00000
     12       2.4457      1.00000
     13       2.4953      1.00000
     14       2.4953      1.00000
     15       3.1167      1.00000
     16       3.1167      1.00000
     17       3.5601      1.00000
     18       3.5601      1.00000
     19       3.7787      1.00000
     20       3.7787      1.00000
     21       3.9647      1.00000
     22       3.9647      1.00000
     23       4.5801      1.00000
     24       4.5801      1.00000
     25       4.7945      1.00000
     26       4.7945      1.00000
     27       5.3428      1.00000
     28       5.3429      1.00000
     29       5.5307      0.00000
     30       5.5307      0.00000
     31       6.3633      0.00000
     32       6.3633      0.00000
     33       6.7669      0.00000
     34       6.7669      0.00000
     35       7.3556      0.00000
     36       7.3556      0.00000
     37       8.1202      0.00000
     38       8.1202      0.00000
     39       8.3234      0.00000
     40       8.3234      0.00000
     41      10.4187      0.00000
     42      10.4187      0.00000
     43      10.6052      0.00000
     44      10.6052      0.00000
     45      11.0752      0.00000
     46      11.0753      0.00000
     47      11.2768      0.00000
     48      11.2768      0.00000
     49      11.9090      0.00000
     50      11.9090      0.00000
     51      12.6061      0.00000
     52      12.6062      0.00000
     53      12.7172      0.00000
     54      12.7172      0.00000
     55      12.9298      0.00000
     56      12.9299      0.00000
     57      13.1624      0.00000
     58      13.1624      0.00000
     59      13.2294      0.00000
     60      13.2295      0.00000
     61      13.5977      0.00000
     62      13.5977      0.00000
     63      13.9093      0.00000
     64      13.9094      0.00000
     65      14.3830      0.00000
     66      14.3830      0.00000
     67      14.8699      0.00000
     68      14.8700      0.00000
     69      15.2101      0.00000
     70      15.2102      0.00000
     71      15.6450      0.00000
     72      15.6450      0.00000
     73      16.8879      0.00000
     74      16.8879      0.00000
     75      17.0026      0.00000
     76      17.0026      0.00000
     77      17.6679      0.00000
     78      17.6680      0.00000
     79      18.1697      0.00000
     80      18.1698      0.00000
     81      18.3537      0.00000
     82      18.3539      0.00000
     83      18.8991      0.00000
     84      18.8997      0.00000
     85      19.1005      0.00000
     86      19.1033      0.00000
     87      19.5523      0.00000
     88      19.5718      0.00000

 k-point     2 :       0.4385    0.4385    0.3289
  band No.  band energies     occupation 
      1      -7.4280      1.00000
      2      -7.4280      1.00000
      3      -7.1204      1.00000
      4      -7.1204      1.00000
      5      -5.3171      1.00000
      6      -5.3171      1.00000
      7      -4.0278      1.00000
      8      -4.0278      1.00000
      9      -2.5046      1.00000
     10      -2.5046      1.00000
     11       2.4853      1.00000
     12       2.4853      1.00000
     13       2.5129      1.00000
     14       2.5129      1.00000
     15       3.1048      1.00000
     16       3.1049      1.00000
     17       3.5658      1.00000
     18       3.5658      1.00000
     19       3.7623      1.00000
     20       3.7623      1.00000
     21       3.9760      1.00000
     22       3.9760      1.00000
     23       4.5843      1.00000
     24       4.5843      1.00000
     25       4.8856      1.00000
     26       4.8856      1.00000
     27       5.3498      1.00000
     28       5.3498      1.00000
     29       5.5061      0.00000
     30       5.5061      0.00000
     31       6.2797      0.00000
     32       6.2797      0.00000
     33       6.7286      0.00000
     34       6.7286      0.00000
     35       7.3747      0.00000
     36       7.3747      0.00000
     37       8.1289      0.00000
     38       8.1289      0.00000
     39       8.3222      0.00000
     40       8.3222      0.00000
     41      10.4599      0.00000
     42      10.4600      0.00000
     43      10.5819      0.00000
     44      10.5819      0.00000
     45      11.0469      0.00000
     46      11.0470      0.00000
     47      11.2335      0.00000
     48      11.2335      0.00000
     49      12.0756      0.00000
     50      12.0756      0.00000
     51      12.5233      0.00000
     52      12.5233      0.00000
     53      12.8725      0.00000
     54      12.8725      0.00000
     55      12.9603      0.00000
     56      12.9604      0.00000
     57      13.0209      0.00000
     58      13.0209      0.00000
     59      13.0750      0.00000
     60      13.0750      0.00000
     61      13.5976      0.00000
     62      13.5977      0.00000
     63      13.6648      0.00000
     64      13.6648      0.00000
     65      14.6044      0.00000
     66      14.6044      0.00000
     67      15.0408      0.00000
     68      15.0408      0.00000
     69      15.3246      0.00000
     70      15.3247      0.00000
     71      15.4627      0.00000
     72      15.4627      0.00000
     73      16.5527      0.00000
     74      16.5527      0.00000
     75      16.7836      0.00000
     76      16.7836      0.00000
     77      17.9939      0.00000
     78      17.9939      0.00000
     79      18.4444      0.00000
     80      18.4444      0.00000
     81      18.5923      0.00000
     82      18.5924      0.00000
     83      18.7061      0.00000
     84      18.7073      0.00000
     85      19.1523      0.00000
     86      19.1573      0.00000
     87      19.3545      0.00000
     88      19.3694      0.00000

 k-point     3 :       0.4693    0.4693    0.3582
  band No.  band energies     occupation 
      1      -7.4144      1.00000
      2      -7.4144      1.00000
      3      -7.1350      1.00000
      4      -7.1350      1.00000
      5      -5.2924      1.00000
      6      -5.2924      1.00000
      7      -4.0592      1.00000
      8      -4.0591      1.00000
      9      -2.4942      1.00000
     10      -2.4942      1.00000
     11       2.4675      1.00000
     12       2.4676      1.00000
     13       2.5030      1.00000
     14       2.5030      1.00000
     15       3.1091      1.00000
     16       3.1091      1.00000
     17       3.5630      1.00000
     18       3.5630      1.00000
     19       3.7707      1.00000
     20       3.7707      1.00000
     21       3.9669      1.00000
     22       3.9669      1.00000
     23       4.5853      1.00000
     24       4.5854      1.00000
     25       4.8420      1.00000
     26       4.8420      1.00000
     27       5.3527      1.00000
     28       5.3527      1.00000
     29       5.5105      0.00000
     30       5.5105      0.00000
     31       6.3205      0.00000
     32       6.3205      0.00000
     33       6.7455      0.00000
     34       6.7455      0.00000
     35       7.3650      0.00000
     36       7.3650      0.00000
     37       8.1278      0.00000
     38       8.1278      0.00000
     39       8.3241      0.00000
     40       8.3241      0.00000
     41      10.4495      0.00000
     42      10.4495      0.00000
     43      10.5862      0.00000
     44      10.5862      0.00000
     45      11.0557      0.00000
     46      11.0557      0.00000
     47      11.2529      0.00000
     48      11.2529      0.00000
     49      11.9908      0.00000
     50      11.9909      0.00000
     51      12.5783      0.00000
     52      12.5783      0.00000
     53      12.8144      0.00000
     54      12.8145      0.00000
     55      12.9315      0.00000
     56      12.9315      0.00000
     57      13.0737      0.00000
     58      13.0737      0.00000
     59      13.1357      0.00000
     60      13.1358      0.00000
     61      13.5935      0.00000
     62      13.5935      0.00000
     63      13.7846      0.00000
     64      13.7846      0.00000
     65      14.4944      0.00000
     66      14.4945      0.00000
     67      14.9636      0.00000
     68      14.9636      0.00000
     69      15.3268      0.00000
     70      15.3268      0.00000
     71      15.4934      0.00000
     72      15.4934      0.00000
     73      16.7259      0.00000
     74      16.7260      0.00000
     75      16.8847      0.00000
     76      16.8847      0.00000
     77      17.8268      0.00000
     78      17.8269      0.00000
     79      18.3534      0.00000
     80      18.3537      0.00000
     81      18.5231      0.00000
     82      18.5232      0.00000
     83      18.7175      0.00000
     84      18.7184      0.00000
     85      19.2321      0.00000
     86      19.2353      0.00000
     87      19.4011      0.00000
     88      19.4204      0.00000

 k-point     4 :       0.5307    0.5307    0.4168
  band No.  band energies     occupation 
      1      -7.3974      1.00000
      2      -7.3974      1.00000
      3      -7.1473      1.00000
      4      -7.1473      1.00000
      5      -5.2664      1.00000
      6      -5.2664      1.00000
      7      -4.0911      1.00000
      8      -4.0911      1.00000
      9      -2.4888      1.00000
     10      -2.4888      1.00000
     11       2.4225      1.00000
     12       2.4225      1.00000
     13       2.4875      1.00000
     14       2.4875      1.00000
     15       3.1271      1.00000
     16       3.1271      1.00000
     17       3.5559      1.00000
     18       3.5559      1.00000
     19       3.7857      1.00000
     20       3.7857      1.00000
     21       3.9709      1.00000
     22       3.9709      1.00000
     23       4.5674      1.00000
     24       4.5674      1.00000
     25       4.7468      1.00000
     26       4.7469      1.00000
     27       5.3247      1.00000
     28       5.3248      1.00000
     29       5.5614      0.00000
     30       5.5614      0.00000
     31       6.4062      0.00000
     32       6.4062      0.00000
     33       6.7924      0.00000
     34       6.7924      0.00000
     35       7.3473      0.00000
     36       7.3473      0.00000
     37       8.1069      0.00000
     38       8.1070      0.00000
     39       8.3193      0.00000
     40       8.3193      0.00000
     41      10.3759      0.00000
     42      10.3759      0.00000
     43      10.6342      0.00000
     44      10.6342      0.00000
     45      11.0995      0.00000
     46      11.0995      0.00000
     47      11.3049      0.00000
     48      11.3050      0.00000
     49      11.8342      0.00000
     50      11.8342      0.00000
     51      12.5925      0.00000
     52      12.5926      0.00000
     53      12.6271      0.00000
     54      12.6271      0.00000
     55      12.9749      0.00000
     56      12.9749      0.00000
     57      13.2594      0.00000
     58      13.2594      0.00000
     59      13.3288      0.00000
     60      13.3288      0.00000
     61      13.6110      0.00000
     62      13.6110      0.00000
     63      14.0355      0.00000
     64      14.0355      0.00000
     65      14.2767      0.00000
     66      14.2767      0.00000
     67      14.7668      0.00000
     68      14.7668      0.00000
     69      15.0903      0.00000
     70      15.0903      0.00000
     71      15.7961      0.00000
     72      15.7961      0.00000
     73      17.0391      0.00000
     74      17.0392      0.00000
     75      17.0937      0.00000
     76      17.0937      0.00000
     77      17.5546      0.00000
     78      17.5546      0.00000
     79      17.9816      0.00000
     80      17.9816      0.00000
     81      18.1849      0.00000
     82      18.1850      0.00000
     83      18.9037      0.00000
     84      18.9043      0.00000
     85      19.1026      0.00000
     86      19.1033      0.00000
     87      19.7416      0.00000
     88      19.8272      0.00000

 k-point     5 :       0.5615    0.5615    0.4461
  band No.  band energies     occupation 
      1      -7.3957      1.00000
      2      -7.3957      1.00000
      3      -7.1431      1.00000
      4      -7.1431      1.00000
      5      -5.2667      1.00000
      6      -5.2667      1.00000
      7      -4.0903      1.00000
      8      -4.0903      1.00000
      9      -2.4939      1.00000
     10      -2.4939      1.00000
     11       2.3994      1.00000
     12       2.3994      1.00000
     13       2.4791      1.00000
     14       2.4791      1.00000
     15       3.1397      1.00000
     16       3.1397      1.00000
     17       3.5498      1.00000
     18       3.5498      1.00000
     19       3.7913      1.00000
     20       3.7913      1.00000
     21       3.9857      1.00000
     22       3.9857      1.00000
     23       4.5460      1.00000
     24       4.5460      1.00000
     25       4.7029      1.00000
     26       4.7029      1.00000
     27       5.3019      1.00000
     28       5.3019      1.00000
     29       5.5981      0.00000
     30       5.5981      0.00000
     31       6.4475      0.00000
     32       6.4475      0.00000
     33       6.8221      0.00000
     34       6.8221      0.00000
     35       7.3410      0.00000
     36       7.3410      0.00000
     37       8.0890      0.00000
     38       8.0890      0.00000
     39       8.3109      0.00000
     40       8.3109      0.00000
     41      10.3278      0.00000
     42      10.3279      0.00000
     43      10.6692      0.00000
     44      10.6692      0.00000
     45      11.1214      0.00000
     46      11.1215      0.00000
     47      11.3372      0.00000
     48      11.3373      0.00000
     49      11.7718      0.00000
     50      11.7719      0.00000
     51      12.5075      0.00000
     52      12.5075      0.00000
     53      12.5967      0.00000
     54      12.5967      0.00000
     55      13.0526      0.00000
     56      13.0526      0.00000
     57      13.3562      0.00000
     58      13.3562      0.00000
     59      13.4262      0.00000
     60      13.4263      0.00000
     61      13.6337      0.00000
     62      13.6337      0.00000
     63      14.1458      0.00000
     64      14.1458      0.00000
     65      14.1971      0.00000
     66      14.1971      0.00000
     67      14.6603      0.00000
     68      14.6603      0.00000
     69      14.9710      0.00000
     70      14.9710      0.00000
     71      15.9380      0.00000
     72      15.9380      0.00000
     73      17.0729      0.00000
     74      17.0729      0.00000
     75      17.1877      0.00000
     76      17.1878      0.00000
     77      17.5406      0.00000
     78      17.5406      0.00000
     79      17.7983      0.00000
     80      17.7983      0.00000
     81      18.0465      0.00000
     82      18.0466      0.00000
     83      18.7191      0.00000
     84      18.7191      0.00000
     85      19.2959      0.00000
     86      19.2966      0.00000
     87      19.9373      0.00000
     88      19.9541      0.00000

 k-point     6 :       0.5133    0.4867    0.3875
  band No.  band energies     occupation 
      1      -7.3994      1.00000
      2      -7.3994      1.00000
      3      -7.1402      1.00000
      4      -7.1402      1.00000
      5      -5.2730      1.00000
      6      -5.2730      1.00000
      7      -4.0815      1.00000
      8      -4.0815      1.00000
      9      -2.4974      1.00000
     10      -2.4974      1.00000
     11       2.4313      1.00000
     12       2.4313      1.00000
     13       2.4925      1.00000
     14       2.4925      1.00000
     15       3.0609      1.00000
     16       3.0609      1.00000
     17       3.5626      1.00000
     18       3.5626      1.00000
     19       3.8345      1.00000
     20       3.8345      1.00000
     21       3.9707      1.00000
     22       3.9707      1.00000
     23       4.5297      1.00000
     24       4.5297      1.00000
     25       4.7831      1.00000
     26       4.7831      1.00000
     27       5.2096      1.00000
     28       5.2096      1.00000
     29       5.6842      0.00000
     30       5.6842      0.00000
     31       6.3613      0.00000
     32       6.3613      0.00000
     33       6.8040      0.00000
     34       6.8040      0.00000
     35       7.3414      0.00000
     36       7.3414      0.00000
     37       8.1293      0.00000
     38       8.1293      0.00000
     39       8.3338      0.00000
     40       8.3338      0.00000
     41      10.4297      0.00000
     42      10.4297      0.00000
     43      10.5776      0.00000
     44      10.5776      0.00000
     45      11.0740      0.00000
     46      11.0740      0.00000
     47      11.3032      0.00000
     48      11.3032      0.00000
     49      11.8445      0.00000
     50      11.8445      0.00000
     51      12.5881      0.00000
     52      12.5881      0.00000
     53      12.7882      0.00000
     54      12.7882      0.00000
     55      12.9263      0.00000
     56      12.9263      0.00000
     57      13.0913      0.00000
     58      13.0913      0.00000
     59      13.3506      0.00000
     60      13.3506      0.00000
     61      13.6095      0.00000
     62      13.6096      0.00000
     63      13.9603      0.00000
     64      13.9604      0.00000
     65      14.3724      0.00000
     66      14.3725      0.00000
     67      14.7401      0.00000
     68      14.7401      0.00000
     69      15.3728      0.00000
     70      15.3728      0.00000
     71      15.6500      0.00000
     72      15.6500      0.00000
     73      16.9056      0.00000
     74      16.9057      0.00000
     75      17.0137      0.00000
     76      17.0138      0.00000
     77      17.6563      0.00000
     78      17.6564      0.00000
     79      18.0099      0.00000
     80      18.0100      0.00000
     81      18.4844      0.00000
     82      18.4845      0.00000
     83      18.8515      0.00000
     84      18.8522      0.00000
     85      19.1364      0.00000
     86      19.1384      0.00000
     87      19.3976      0.00000
     88      19.4114      0.00000

 k-point     7 :       0.5067    0.4933    0.3875
  band No.  band energies     occupation 
      1      -7.4027      1.00000
      2      -7.4027      1.00000
      3      -7.1433      1.00000
      4      -7.1433      1.00000
      5      -5.2746      1.00000
      6      -5.2746      1.00000
      7      -4.0808      1.00000
      8      -4.0808      1.00000
      9      -2.4910      1.00000
     10      -2.4910      1.00000
     11       2.4422      1.00000
     12       2.4422      1.00000
     13       2.4946      1.00000
     14       2.4946      1.00000
     15       3.1014      1.00000
     16       3.1014      1.00000
     17       3.5610      1.00000
     18       3.5610      1.00000
     19       3.7940      1.00000
     20       3.7940      1.00000
     21       3.9659      1.00000
     22       3.9659      1.00000
     23       4.5675      1.00000
     24       4.5675      1.00000
     25       4.7912      1.00000
     26       4.7913      1.00000
     27       5.2949      1.00000
     28       5.2949      1.00000
     29       5.5840      0.00000
     30       5.5840      0.00000
     31       6.3627      0.00000
     32       6.3627      0.00000
     33       6.7765      0.00000
     34       6.7765      0.00000
     35       7.3518      0.00000
     36       7.3518      0.00000
     37       8.1226      0.00000
     38       8.1226      0.00000
     39       8.3261      0.00000
     40       8.3261      0.00000
     41      10.4215      0.00000
     42      10.4216      0.00000
     43      10.5980      0.00000
     44      10.5980      0.00000
     45      11.0749      0.00000
     46      11.0749      0.00000
     47      11.2836      0.00000
     48      11.2837      0.00000
     49      11.8916      0.00000
     50      11.8916      0.00000
     51      12.6013      0.00000
     52      12.6014      0.00000
     53      12.7363      0.00000
     54      12.7363      0.00000
     55      12.9281      0.00000
     56      12.9281      0.00000
     57      13.1334      0.00000
     58      13.1334      0.00000
     59      13.2721      0.00000
     60      13.2721      0.00000
     61      13.5997      0.00000
     62      13.5997      0.00000
     63      13.9231      0.00000
     64      13.9231      0.00000
     65      14.3810      0.00000
     66      14.3810      0.00000
     67      14.8258      0.00000
     68      14.8258      0.00000
     69      15.2619      0.00000
     70      15.2619      0.00000
     71      15.6461      0.00000
     72      15.6461      0.00000
     73      16.8924      0.00000
     74      16.8924      0.00000
     75      17.0053      0.00000
     76      17.0053      0.00000
     77      17.6656      0.00000
     78      17.6657      0.00000
     79      18.1101      0.00000
     80      18.1101      0.00000
     81      18.4077      0.00000
     82      18.4077      0.00000
     83      18.8827      0.00000
     84      18.8832      0.00000
     85      19.1101      0.00000
     86      19.1134      0.00000
     87      19.5010      0.00000
     88      19.5237      0.00000

 k-point     8 :       0.4933    0.5067    0.3875
  band No.  band energies     occupation 
      1      -7.4027      1.00000
      2      -7.4027      1.00000
      3      -7.1433      1.00000
      4      -7.1433      1.00000
      5      -5.2746      1.00000
      6      -5.2746      1.00000
      7      -4.0808      1.00000
      8      -4.0808      1.00000
      9      -2.4910      1.00000
     10      -2.4910      1.00000
     11       2.4422      1.00000
     12       2.4422      1.00000
     13       2.4946      1.00000
     14       2.4946      1.00000
     15       3.1014      1.00000
     16       3.1014      1.00000
     17       3.5610      1.00000
     18       3.5610      1.00000
     19       3.7940      1.00000
     20       3.7940      1.00000
     21       3.9659      1.00000
     22       3.9659      1.00000
     23       4.5675      1.00000
     24       4.5675      1.00000
     25       4.7912      1.00000
     26       4.7913      1.00000
     27       5.2949      1.00000
     28       5.2949      1.00000
     29       5.5840      0.00000
     30       5.5840      0.00000
     31       6.3627      0.00000
     32       6.3627      0.00000
     33       6.7765      0.00000
     34       6.7765      0.00000
     35       7.3518      0.00000
     36       7.3518      0.00000
     37       8.1226      0.00000
     38       8.1226      0.00000
     39       8.3261      0.00000
     40       8.3261      0.00000
     41      10.4215      0.00000
     42      10.4216      0.00000
     43      10.5980      0.00000
     44      10.5980      0.00000
     45      11.0749      0.00000
     46      11.0749      0.00000
     47      11.2836      0.00000
     48      11.2837      0.00000
     49      11.8916      0.00000
     50      11.8916      0.00000
     51      12.6013      0.00000
     52      12.6014      0.00000
     53      12.7363      0.00000
     54      12.7363      0.00000
     55      12.9281      0.00000
     56      12.9281      0.00000
     57      13.1334      0.00000
     58      13.1334      0.00000
     59      13.2721      0.00000
     60      13.2721      0.00000
     61      13.5997      0.00000
     62      13.5997      0.00000
     63      13.9231      0.00000
     64      13.9231      0.00000
     65      14.3810      0.00000
     66      14.3810      0.00000
     67      14.8258      0.00000
     68      14.8258      0.00000
     69      15.2619      0.00000
     70      15.2619      0.00000
     71      15.6461      0.00000
     72      15.6461      0.00000
     73      16.8924      0.00000
     74      16.8924      0.00000
     75      17.0053      0.00000
     76      17.0053      0.00000
     77      17.6656      0.00000
     78      17.6657      0.00000
     79      18.1101      0.00000
     80      18.1101      0.00000
     81      18.4077      0.00000
     82      18.4079      0.00000
     83      18.8828      0.00000
     84      18.8839      0.00000
     85      19.1106      0.00000
     86      19.1135      0.00000
     87      19.5018      0.00000
     88      19.5341      0.00000

 k-point     9 :       0.4867    0.5133    0.3875
  band No.  band energies     occupation 
      1      -7.3994      1.00000
      2      -7.3994      1.00000
      3      -7.1402      1.00000
      4      -7.1402      1.00000
      5      -5.2730      1.00000
      6      -5.2730      1.00000
      7      -4.0815      1.00000
      8      -4.0815      1.00000
      9      -2.4974      1.00000
     10      -2.4974      1.00000
     11       2.4313      1.00000
     12       2.4313      1.00000
     13       2.4925      1.00000
     14       2.4925      1.00000
     15       3.0609      1.00000
     16       3.0609      1.00000
     17       3.5626      1.00000
     18       3.5626      1.00000
     19       3.8345      1.00000
     20       3.8345      1.00000
     21       3.9707      1.00000
     22       3.9707      1.00000
     23       4.5297      1.00000
     24       4.5297      1.00000
     25       4.7831      1.00000
     26       4.7831      1.00000
     27       5.2096      1.00000
     28       5.2096      1.00000
     29       5.6842      0.00000
     30       5.6842      0.00000
     31       6.3613      0.00000
     32       6.3613      0.00000
     33       6.8040      0.00000
     34       6.8040      0.00000
     35       7.3414      0.00000
     36       7.3414      0.00000
     37       8.1293      0.00000
     38       8.1293      0.00000
     39       8.3338      0.00000
     40       8.3338      0.00000
     41      10.4297      0.00000
     42      10.4297      0.00000
     43      10.5776      0.00000
     44      10.5776      0.00000
     45      11.0740      0.00000
     46      11.0740      0.00000
     47      11.3032      0.00000
     48      11.3032      0.00000
     49      11.8445      0.00000
     50      11.8445      0.00000
     51      12.5881      0.00000
     52      12.5881      0.00000
     53      12.7882      0.00000
     54      12.7882      0.00000
     55      12.9263      0.00000
     56      12.9263      0.00000
     57      13.0913      0.00000
     58      13.0913      0.00000
     59      13.3506      0.00000
     60      13.3506      0.00000
     61      13.6095      0.00000
     62      13.6096      0.00000
     63      13.9603      0.00000
     64      13.9604      0.00000
     65      14.3724      0.00000
     66      14.3725      0.00000
     67      14.7401      0.00000
     68      14.7401      0.00000
     69      15.3728      0.00000
     70      15.3728      0.00000
     71      15.6500      0.00000
     72      15.6500      0.00000
     73      16.9056      0.00000
     74      16.9057      0.00000
     75      17.0137      0.00000
     76      17.0138      0.00000
     77      17.6563      0.00000
     78      17.6564      0.00000
     79      18.0100      0.00000
     80      18.0100      0.00000
     81      18.4844      0.00000
     82      18.4845      0.00000
     83      18.8516      0.00000
     84      18.8519      0.00000
     85      19.1377      0.00000
     86      19.1394      0.00000
     87      19.3982      0.00000
     88      19.4087      0.00000

 k-point    10 :       0.5000    0.5000    0.3646
  band No.  band energies     occupation 
      1      -7.3589      1.00000
      2      -7.3589      1.00000
      3      -7.0972      1.00000
      4      -7.0972      1.00000
      5      -5.2588      1.00000
      6      -5.2587      1.00000
      7      -4.0818      1.00000
      8      -4.0818      1.00000
      9      -2.5849      1.00000
     10      -2.5849      1.00000
     11       2.2246      1.00000
     12       2.2247      1.00000
     13       2.4998      1.00000
     14       2.4998      1.00000
     15       2.9568      1.00000
     16       2.9568      1.00000
     17       3.5184      1.00000
     18       3.5184      1.00000
     19       3.6579      1.00000
     20       3.6579      1.00000
     21       3.9228      1.00000
     22       3.9228      1.00000
     23       4.5420      1.00000
     24       4.5420      1.00000
     25       4.6629      1.00000
     26       4.6629      1.00000
     27       5.3330      1.00000
     28       5.3330      1.00000
     29       5.5780      0.00000
     30       5.5780      0.00000
     31       6.5718      0.00000
     32       6.5718      0.00000
     33       6.8177      0.00000
     34       6.8177      0.00000
     35       7.4959      0.00000
     36       7.4959      0.00000
     37       8.2305      0.00000
     38       8.2305      0.00000
     39       8.4470      0.00000
     40       8.4470      0.00000
     41      10.3245      0.00000
     42      10.3245      0.00000
     43      10.6257      0.00000
     44      10.6257      0.00000
     45      10.9624      0.00000
     46      10.9624      0.00000
     47      11.3800      0.00000
     48      11.3800      0.00000
     49      11.8538      0.00000
     50      11.8539      0.00000
     51      12.5608      0.00000
     52      12.5609      0.00000
     53      12.6913      0.00000
     54      12.6913      0.00000
     55      12.9489      0.00000
     56      12.9489      0.00000
     57      13.1228      0.00000
     58      13.1229      0.00000
     59      13.3317      0.00000
[...]
  0.000   0.000   0.000   0.000   9.920   0.000   0.000   0.000  -0.000  -0.519   8.424   0.000   0.000   0.000  -0.000  -0.432
  0.006   0.000   0.007   0.000   0.000   0.000   9.920   0.000  -0.000   0.000   0.000   0.000   8.424   0.000  -0.000   0.000
  0.048   0.000   0.055   0.000  -0.000   0.519  -0.000   0.000   9.919   0.000  -0.000   0.432  -0.000   0.000   8.423   0.000
  0.000   0.000   0.000   0.000   8.424   0.000   0.000   0.000  -0.000  -0.432   7.226   0.000   0.000   0.000   0.000  -0.359
  0.005   0.000   0.006   0.000   0.000   0.000   8.424   0.000  -0.000   0.000   0.000   0.000   7.226   0.000  -0.000   0.000
  0.041   0.000   0.046   0.000  -0.000   0.432  -0.000   0.000   8.423   0.000   0.000   0.359  -0.000   0.000   7.225   0.000
 -0.000   0.000  -0.000   0.000   0.009   0.000  -0.000   0.000  -0.000   0.000   0.008   0.000  -0.000   0.000  -0.000   0.000
  0.000   0.000   0.000   0.000   0.000   0.000   0.000   0.000  -0.000   0.000  -0.000   0.000   0.000   0.000  -0.000   0.000
  0.000   0.000   0.000   0.000   0.000   0.000   0.002   0.000  -0.006   0.000   0.000   0.000   0.002   0.000  -0.005   0.000
 -0.000   0.000  -0.000   0.000  -0.000   0.000   0.009   0.000   0.001   0.000  -0.000   0.000   0.008   0.000   0.001   0.000
 -0.001   0.000  -0.001   0.000   0.000   0.000   0.001   0.000   0.010   0.000   0.000   0.000   0.001   0.000   0.009   0.000
 total augmentation occupancy for first ion, spin component:           1
  2.000   0.000   0.000   0.000   0.000   0.000   0.000   0.000   0.000   0.000   0.000   0.000   0.000
  0.000   0.000   0.000   0.000   0.000   0.000   0.000   0.000   0.000   0.000   0.000   0.000   0.000
  0.000   0.000   1.000   0.000   0.000   0.000   0.000   0.000   0.000   0.000   0.000   0.000   0.000
  0.000   0.000   0.000   1.000   0.000   0.000   0.000   0.000   0.000   0.000   0.000   0.000   0.000
  0.000   0.000   0.000   0.000   1.000   0.000   0.000   0.000   0.000   0.000   0.000   0.000   0.000
  0.000   0.000   0.000   0.000   0.000   0.000   0.000   0.000   0.000   0.000   0.000   0.000   0.000
  0.000   0.000   0.000   0.000   0.000   0.000   0.000   0.000   0.000   0.000   0.000   0.000   0.000
  0.000   0.000   0.000   0.000   0.000   0.000   0.000   0.000   0.000   0.000   0.000   0.000   0.000
  0.000   0.000   0.000   0.000   0.000   0.000   0.000   0.000   0.000   0.000   0.000   0.000   0.000
  0.000   0.000   0.000   0.000   0.000   0.000   0.000   0.000   0.000   0.000   0.000   0.000   0.000
  0.000   0.000   0.000   0.000   0.000   0.000   0.000   0.000   0.000   0.000   0.000   0.000   0.000
  0.000   0.000   0.000   0.000   0.000   0.000   0.000   0.000   0.000   0.000   0.000   0.000   0.000
  0.000   0.000   0.000   0.000   0.000   0.000   0.000   0.000   0.000   0.000   0.000   0.000   0.000
 total augmentation occupancy for first ion, spin component:           2
  0.400   0.000   0.000   0.000   0.000   0.000   0.000   0.000   0.000   0.000   0.000   0.000   0.000
  0.000   0.000   0.000   0.000   0.000   0.000   0.000   0.000   0.000   0.000   0.000   0.000   0.000
  0.000   0.000   0.200   0.000   0.000   0.000   0.000   0.000   0.000   0.000   0.000   0.000   0.000
  0.000   0.000   0.000   0.200   0.000   0.000   0.000   0.000   0.000   0.000   0.000   0.000   0.000
  0.000   0.000   0.000   0.000   0.200   0.000   0.000   0.000   0.000   0.000   0.000   0.000   0.000
  0.000   0.000   0.000   0.000   0.000   0.000   0.000   0.000   0.000   0.000   0.000   0.000   0.000
  0.000   0.000   0.000   0.000   0.000   0.000   0.000   0.000   0.000   0.000   0.000   0.000   0.000
  0.000   0.000   0.000   0.000   0.000   0.000   0.000   0.000   0.000   0.000   0.000   0.000   0.000
  0.000   0.000   0.000   0.000   0.000   0.000   0.000   0.000   0.000   0.000   0.000   0.000   0.000
  0.000   0.000   0.000   0.000   0.000   0.000   0.000   0.000   0.000   0.000   0.000   0.000   0.000
  0.000   0.000   0.000   0.000   0.000   0.000   0.000   0.000   0.000   0.000   0.000   0.000   0.000
  0.000   0.000   0.000   0.000   0.000   0.000   0.000   0.000   0.000   0.000   0.000   0.000   0.000
  0.000   0.000   0.000   0.000   0.000   0.000   0.000   0.000   0.000   0.000   0.000   0.000   0.000
 total augmentation occupancy for first ion, spin component:           3
  0.400   0.000   0.000   0.000   0.000   0.000   0.000   0.000   0.000   0.000   0.000   0.000   0.000
  0.000   0.000   0.000   0.000   0.000   0.000   0.000   0.000   0.000   0.000   0.000   0.000   0.000
  0.000   0.000   0.200   0.000   0.000   0.000   0.000   0.000   0.000   0.000   0.000   0.000   0.000
  0.000   0.000   0.000   0.200   0.000   0.000   0.000   0.000   0.000   0.000   0.000   0.000   0.000
  0.000   0.000   0.000   0.000   0.200   0.000   0.000   0.000   0.000   0.000   0.000   0.000   0.000
  0.000   0.000   0.000   0.000   0.000   0.000   0.000   0.000   0.000   0.000   0.000   0.000   0.000
  0.000   0.000   0.000   0.000   0.000   0.000   0.000   0.000   0.000   0.000   0.000   0.000   0.000
  0.000   0.000   0.000   0.000   0.000   0.000   0.000   0.000   0.000   0.000   0.000   0.000   0.000
  0.000   0.000   0.000   0.000   0.000   0.000   0.000   0.000   0.000   0.000   0.000   0.000   0.000
  0.000   0.000   0.000   0.000   0.000   0.000   0.000   0.000   0.000   0.000   0.000   0.000   0.000
  0.000   0.000   0.000   0.000   0.000   0.000   0.000   0.000   0.000   0.000   0.000   0.000   0.000
  0.000   0.000   0.000   0.000   0.000   0.000   0.000   0.000   0.000   0.000   0.000   0.000   0.000
  0.000   0.000   0.000   0.000   0.000   0.000   0.000   0.000   0.000   0.000   0.000   0.000   0.000
 total augmentation occupancy for first ion, spin component:           4
  0.400   0.000   0.000   0.000   0.000   0.000   0.000   0.000   0.000   0.000   0.000   0.000   0.000
  0.000   0.000   0.000   0.000   0.000   0.000   0.000   0.000   0.000   0.000   0.000   0.000   0.000
  0.000   0.000   0.200   0.000   0.000   0.000   0.000   0.000   0.000   0.000   0.000   0.000   0.000
  0.000   0.000   0.000   0.200   0.000   0.000   0.000   0.000   0.000   0.000   0.000   0.000   0.000
  0.000   0.000   0.000   0.000   0.200   0.000   0.000   0.000   0.000   0.000   0.000   0.000   0.000
  0.000   0.000   0.000   0.000   0.000   0.000   0.000   0.000   0.000   0.000   0.000   0.000   0.000
  0.000   0.000   0.000   0.000   0.000   0.000   0.000   0.000   0.000   0.000   0.000   0.000   0.000
  0.000   0.000   0.000   0.000   0.000   0.000   0.000   0.000   0.000   0.000   0.000   0.000   0.000
  0.000   0.000   0.000   0.000   0.000   0.000   0.000   0.000   0.000   0.000   0.000   0.000   0.000
  0.000   0.000   0.000   0.000   0.000   0.000   0.000   0.000   0.000   0.000   0.000   0.000   0.000
  0.000   0.000   0.000   0.000   0.000   0.000   0.000   0.000   0.000   0.000   0.000   0.000   0.000
  0.000   0.000   0.000   0.000   0.000   0.000   0.000   0.000   0.000   0.000   0.000   0.000   0.000
  0.000   0.000   0.000   0.000   0.000   0.000   0.000   0.000   0.000   0.000   0.000   0.000   0.000


------------------------ aborting loop because EDIFF is reached ----------------------------------------


    CHARGE:  cpu time   13.0105: real time   13.1139
    FORLOC:  cpu time    0.0425: real time    0.0426
    FORNL :  cpu time   27.6109: real time   27.6925
    STRESS:  cpu time   76.0838: real time   76.2725
    FORCOR:  cpu time    2.2527: real time    2.2530
    FORHAR:  cpu time    0.2035: real time    0.2035
    OFIELD:  cpu time    0.0159: real time    0.0159

 ---------------------------------------------------------------------------------------------

         DFTD3 V3.0 Rev 1        
 IVDW         = 11
 DF pbe       
 parameters
 VDW_S6       =    1.0000
 VDW_S8       =    0.7220
 VDW_SR       =    1.2170
 rs18     =    1.0000
 alpha6   =   14.0000
 alpha8   =   16.0000
 k1-k3    =   16.0000    1.3333   -4.0000
 VDW_RADIUS   =   50.2022 A
 VDW_CNRADIUS =   21.1671 A
 Edisp (eV)   -1.44006

 E6    (eV) :    -0.5341
 E8    (eV) :    -0.9060
 % E8        : 62.91
    FORVDW:  cpu time    0.0406: real time    0.0510

  FORCE on cell =-STRESS in cart. coord.  units (eV):
  Direction    XX          YY          ZZ          XY          YZ          ZX
  --------------------------------------------------------------------------------------
  Alpha Z     5.99832     5.99832     5.99832
  Ewald    -328.18772  -327.69505  -327.70289     0.00000     0.00000    -0.06217
  Hartree    23.62374    23.79503    23.92353     0.00000    -0.00000     0.21147
  E(xc)    -115.93148  -116.83698  -116.62017    -0.00000     0.00000    -0.16921
  Local    -170.35591  -180.66523  -177.72429    -0.00000     0.00000    -3.53246
  n-local   498.61818   507.57566   505.26274     0.00000    -0.00000     2.24741
  augment  -136.43290  -139.30512  -138.87879    -0.00000     0.00000    -0.08236
  Kinetic   235.98329   269.27664   262.40674     0.00000     0.00000    -6.93807
  Fock        0.00000     0.00000     0.00000     0.00000     0.00000     0.00000
  vdW        -1.55260    -1.18955    -1.19533     0.00000    -0.00000    -0.04581
  -------------------------------------------------------------------------------------
  Total      11.76291    40.95371    35.46984    -0.00000     0.00000    -8.37121
  in kB     109.17233   380.09398   329.19784    -0.00000     0.00001   -77.69375
  external pressure =      272.82 kB  Pullay stress =        0.00 kB


 VOLUME and BASIS-vectors are now :
 -----------------------------------------------------------------------------
  energy-cutoff  :      600.00
  volume of cell :      172.63
      direct lattice vectors                 reciprocal lattice vectors
    10.222282710 -2.216677340  0.000000000     0.048912754 -0.225562824 -0.125089241
    10.222282710  2.216677340  0.000000000     0.048912754  0.225562824 -0.125089241
     9.741601570  0.000000000  3.809189020    -0.000000000  0.000000000  0.262523071

  length of vectors
    10.459862439 10.459862439 10.459862434     0.262523071  0.262523071  0.262523071


 FORCES acting on ions
    electron-ion (+dipol)            ewald-force                    non-local-force                 convergence-correction
 -----------------------------------------------------------------------------------------------
   -.133E+01 -.725E-05 -.365E+00   0.388E+01 0.647E-14 0.490E+00   -.170E+00 0.112E-04 0.489E+00   -.222E+01 0.490E-06 -.329E+00
   0.133E+01 -.747E-05 0.365E+00   -.388E+01 -.689E-14 -.490E+00   0.170E+00 0.114E-04 -.489E+00   0.222E+01 0.658E-06 0.329E+00
   -.614E-05 0.483E-05 0.527E-05   -.568E-13 -.288E-14 -.355E-14   0.915E-05 -.884E-05 -.365E-05   -.372E-05 0.746E-06 -.111E-05
   0.260E+02 0.550E-05 0.447E+01   -.256E+02 0.394E-14 -.323E+01   -.760E+00 -.961E-05 -.171E+00   0.703E+00 0.514E-06 -.322E+00
   -.260E+02 0.838E-05 -.447E+01   0.256E+02 -.408E-14 0.323E+01   0.760E+00 -.120E-04 0.171E+00   -.703E+00 0.250E-06 0.322E+00
 -----------------------------------------------------------------------------------------------
   -.223E-04 0.399E-05 0.172E-04   -.142E-13 -.345E-14 -.444E-15   0.213E-04 -.786E-05 -.165E-04   0.918E-06 0.266E-05 -.952E-06


 POSITION                                       TOTAL-FORCE (eV/Angst)
 -----------------------------------------------------------------------------------
     12.06838      0.00000      1.52291         0.185259      0.000005      0.287928
     18.11779      0.00000      2.28628        -0.185257      0.000005     -0.287929
      0.00000      0.00000      0.00000        -0.000001     -0.000003      0.000001
      6.35376      0.00000      0.80178         0.315193     -0.000003      0.741709
     23.83241      0.00000      3.00741        -0.315195     -0.000003     -0.741709
 -----------------------------------------------------------------------------------
    total drift:                               -0.000000     -0.000001     -0.000000


--------------------------------------------------------------------------------------------------------



  FREE ENERGIE OF THE ION-ELECTRON SYSTEM (eV)
  ---------------------------------------------------
  free  energy   TOTEN  =        -7.24079509 eV

  energy  without entropy=       -7.24079509  energy(sigma->0) =       -7.24079509



--------------------------------------------------------------------------------------------------------


    POTLOK:  cpu time    6.0720: real time    6.1273


--------------------------------------------------------------------------------------------------------


     LOOP+:  cpu time 1734.8269: real time 1738.5856
    4ORBIT:  cpu time    0.0000: real time    0.0000

 Spin-Orbit-Coupling matrix elements

 Ion:    1  E_soc:     -1.2255119
 l=   1
     0.0000000    -0.2030094    -0.1975951
    -0.2030094     0.0000000    -0.2073275
    -0.1975951    -0.2073275     0.0000000
 l=   2
     0.0000000    -0.0003766     0.0000000    -0.0003436    -0.0014046
    -0.0003766     0.0000000    -0.0008965    -0.0002560    -0.0007196
     0.0000000    -0.0008965     0.0000000    -0.0005930     0.0000000
    -0.0003436    -0.0002560    -0.0005930     0.0000000    -0.0002340
    -0.0014046    -0.0007196     0.0000000    -0.0002340     0.0000000
 l=   3
     0.0000000     0.0000000     0.0000000     0.0000000     0.0000000     0.0000000     0.0000000
     0.0000000     0.0000000     0.0000000     0.0000000     0.0000000     0.0000000     0.0000000
     0.0000000     0.0000000     0.0000000     0.0000000     0.0000000     0.0000000     0.0000000
     0.0000000     0.0000000     0.0000000     0.0000000     0.0000000     0.0000000     0.0000000
     0.0000000     0.0000000     0.0000000     0.0000000     0.0000000     0.0000000     0.0000000
     0.0000000     0.0000000     0.0000000     0.0000000     0.0000000     0.0000000     0.0000000
     0.0000000     0.0000000     0.0000000     0.0000000     0.0000000     0.0000000     0.0000000

 Ion:    2  E_soc:     -1.2255117
 l=   1
     0.0000000    -0.2030094    -0.1975951
    -0.2030094     0.0000000    -0.2073273
    -0.1975951    -0.2073273     0.0000000
 l=   2
     0.0000000    -0.0003766     0.0000000    -0.0003436    -0.0014046
    -0.0003766     0.0000000    -0.0008965    -0.0002560    -0.0007196
     0.0000000    -0.0008965     0.0000000    -0.0005930     0.0000000
    -0.0003436    -0.0002560    -0.0005930     0.0000000    -0.0002340
    -0.0014046    -0.0007196     0.0000000    -0.0002340     0.0000000
 l=   3
     0.0000000     0.0000000     0.0000000     0.0000000     0.0000000     0.0000000     0.0000000
     0.0000000     0.0000000     0.0000000     0.0000000     0.0000000     0.0000000     0.0000000
     0.0000000     0.0000000     0.0000000     0.0000000     0.0000000     0.0000000     0.0000000
     0.0000000     0.0000000     0.0000000     0.0000000     0.0000000     0.0000000     0.0000000
     0.0000000     0.0000000     0.0000000     0.0000000     0.0000000     0.0000000     0.0000000
     0.0000000     0.0000000     0.0000000     0.0000000     0.0000000     0.0000000     0.0000000
     0.0000000     0.0000000     0.0000000     0.0000000     0.0000000     0.0000000     0.0000000

 Ion:    3  E_soc:     -0.2383769
 l=   1
     0.0000000    -0.0442110    -0.0335633
    -0.0442110     0.0000000    -0.0417535
    -0.0335633    -0.0417535     0.0000000
 l=   2
     0.0000000     0.0000015     0.0000000    -0.0000993     0.0001181
     0.0000015     0.0000000     0.0001186    -0.0000024     0.0000590
     0.0000000     0.0001186     0.0000000     0.0000500     0.0000000
    -0.0000993    -0.0000024     0.0000500     0.0000000     0.0000941
     0.0001181     0.0000590     0.0000000     0.0000941     0.0000000
 l=   3
     0.0000000     0.0000000     0.0000000     0.0000000     0.0000000     0.0000000     0.0000000
     0.0000000     0.0000000     0.0000000     0.0000000     0.0000000     0.0000000     0.0000000
     0.0000000     0.0000000     0.0000000     0.0000000     0.0000000     0.0000000     0.0000000
     0.0000000     0.0000000     0.0000000     0.0000000     0.0000000     0.0000000     0.0000000
     0.0000000     0.0000000     0.0000000     0.0000000     0.0000000     0.0000000     0.0000000
     0.0000000     0.0000000     0.0000000     0.0000000     0.0000000     0.0000000     0.0000000
     0.0000000     0.0000000     0.0000000     0.0000000     0.0000000     0.0000000     0.0000000

 Ion:    4  E_soc:     -0.2347156
 l=   1
     0.0000000    -0.0313586    -0.0350622
    -0.0313586     0.0000000    -0.0510876
    -0.0350622    -0.0510876     0.0000000
 l=   2
     0.0000000    -0.0000116     0.0000000    -0.0000223     0.0000200
    -0.0000116     0.0000000     0.0000660     0.0000237     0.0000461
     0.0000000     0.0000660     0.0000000    -0.0000057     0.0000000
    -0.0000223     0.0000237    -0.0000057     0.0000000     0.0000344
     0.0000200     0.0000461     0.0000000     0.0000344     0.0000000
 l=   3
     0.0000000     0.0000000     0.0000000     0.0000000     0.0000000     0.0000000     0.0000000
     0.0000000     0.0000000     0.0000000     0.0000000     0.0000000     0.0000000     0.0000000
     0.0000000     0.0000000     0.0000000     0.0000000     0.0000000     0.0000000     0.0000000
     0.0000000     0.0000000     0.0000000     0.0000000     0.0000000     0.0000000     0.0000000
     0.0000000     0.0000000     0.0000000     0.0000000     0.0000000     0.0000000     0.0000000
     0.0000000     0.0000000     0.0000000     0.0000000     0.0000000     0.0000000     0.0000000
     0.0000000     0.0000000     0.0000000     0.0000000     0.0000000     0.0000000     0.0000000

 Ion:    5  E_soc:     -0.2347156
 l=   1
     0.0000000    -0.0313587    -0.0350623
    -0.0313587     0.0000000    -0.0510875
    -0.0350623    -0.0510875     0.0000000
 l=   2
     0.0000000    -0.0000116     0.0000000    -0.0000223     0.0000200
    -0.0000116     0.0000000     0.0000660     0.0000237     0.0000461
     0.0000000     0.0000660     0.0000000    -0.0000057     0.0000000
    -0.0000223     0.0000237    -0.0000057     0.0000000     0.0000344
     0.0000200     0.0000461     0.0000000     0.0000344     0.0000000
 l=   3
     0.0000000     0.0000000     0.0000000     0.0000000     0.0000000     0.0000000     0.0000000
     0.0000000     0.0000000     0.0000000     0.0000000     0.0000000     0.0000000     0.0000000
     0.0000000     0.0000000     0.0000000     0.0000000     0.0000000     0.0000000     0.0000000
     0.0000000     0.0000000     0.0000000     0.0000000     0.0000000     0.0000000     0.0000000
     0.0000000     0.0000000     0.0000000     0.0000000     0.0000000     0.0000000     0.0000000
     0.0000000     0.0000000     0.0000000     0.0000000     0.0000000     0.0000000     0.0000000
     0.0000000     0.0000000     0.0000000     0.0000000     0.0000000     0.0000000     0.0000000

 total amount of memory used by VASP MPI-rank0   804901. kBytes
=======================================================================

   base      :      30000. kBytes
   nonl-proj :      36720. kBytes
   fftplans  :     182230. kBytes
   grid      :     180182. kBytes
   one-center:         97. kBytes
   wavefun   :     375672. kBytes

  
  
 General timing and accounting informations for this job:
 ========================================================
  
                  Total CPU time used (sec):     1757.856
                            User time (sec):     1736.754
                          System time (sec):       21.102
                         Elapsed time (sec):     1762.228
  
                   Maximum memory used (kb):     1192188.
                   Average memory used (kb):           0.
  
                          Minor page faults:       392621
                          Major page faults:            0
                 Voluntary context switches:         4487
