<?xml version="1.0" encoding="ISO-8859-1"?>
<modeling>
 <generator>
  <i name="program" type="string">vasp </i>
  <i name="version" type="string">5.4.4.18Apr17-6-g9f103f2a35  </i>
  <i name="subversion" type="string">(build Mar 20 2018 18:07:30) complex            parallel </i>
  <i name="platform" type="string">LinuxGNU </i>
  <i name="date" type="string">2020 07 06 </i>
  <i name="time" type="string">22:42:43 </i>
 </generator>
 <incar>
  <i type="string" name="SYSTEM"> BiTe</i>
  <i type="int" name="ISTART">     1</i>
  <i type="string" name="PREC">accurate</i>
  <i type="string" name="ALGO"> A</i>
  <i type="logical" name="ADDGRID"> T  </i>
  <i type="logical" name="LSORBIT"> T  </i>
  <i type="int" name="ISPIN">     1</i>
  <i type="int" name="ICHARG">    11</i>
  <i type="int" name="IBRION">    -1</i>
  <i name="EDIFF">      0.00000010</i>
  <i name="EDIFFG">     -0.00100000</i>
  <i type="int" name="NSW">     0</i>
  <i type="int" name="ISYM">    -1</i>
  <i name="ENCUT">    600.00000000</i>
  <i type="int" name="NBANDS">    88</i>
  <i type="logical" name="LREAL"> F  </i>
  <i type="logical" name="LPLANE"> T  </i>
  <i type="int" name="ISMEAR">     0</i>
  <i name="SIGMA">      0.01000000</i>
  <i type="int" name="LMAXMIX">     4</i>
  <i type="logical" name="LWAVE"> F  </i>
  <i type="logical" name="LCHARG"> F  </i>
  <i type="logical" name="GGA_COMPAT"> F  </i>
  <v type="int" name="KPOINT_BSE">    -1     0     0     0</v>
 </incar>
 <structure name="primitive_cell" >
  <crystal>
   <varray name="basis" >
    <v>      10.22228271      -2.21667734       0.00000000 </v>
    <v>      10.22228271       2.21667734       0.00000000 </v>
    <v>       9.74160157       0.00000000       3.80918902 </v>
   </varray>
   <i name="volume">    172.62865583 </i>
   <varray name="rec_basis" >
    <v>       0.04891275      -0.22556282      -0.12508924 </v>
    <v>       0.04891275       0.22556282      -0.12508924 </v>
    <v>      -0.00000000       0.00000000       0.26252307 </v>
   </varray>
  </crystal>
  <varray name="positions" >
   <v>       0.39979833       0.39979833       0.39979833 </v>
   <v>      -0.21048582      -0.21048582      -0.21048582 </v>
   <v>       0.00000000       0.00000000       0.00000000 </v>
   <v>      -0.39979833      -0.39979833      -0.39979833 </v>
   <v>       0.21048582       0.21048582       0.21048582 </v>
  </varray>
 </structure>
 <varray name="primitive_index" >
  <v type="int" >        1 </v>
  <v type="int" >        5 </v>
  <v type="int" >        3 </v>
  <v type="int" >        2 </v>
  <v type="int" >        4 </v>
 </varray>
 <kpoints>
  <varray name="kpointlist" >
   <v>       0.50000000       0.50000000       0.38750000 </v>
   <v>       0.43851108       0.43851108       0.32890246 </v>
   <v>       0.46925554       0.46925554       0.35820123 </v>
   <v>       0.53074446       0.53074446       0.41679877 </v>
   <v>       0.56148892       0.56148892       0.44609754 </v>
   <v>       0.51333372       0.48666628       0.38750000 </v>
   <v>       0.50666686       0.49333314       0.38750000 </v>
   <v>       0.49333314       0.50666686       0.38750000 </v>
   <v>       0.48666628       0.51333372       0.38750000 </v>
   <v>       0.50000000       0.50000000       0.36458702 </v>
   <v>       0.50000000       0.50000000       0.37604351 </v>
   <v>       0.50000000       0.50000000       0.39895649 </v>
   <v>       0.50000000       0.50000000       0.41041298 </v>
   <v>       0.45184480       0.42517735       0.32890246 </v>
   <v>       0.48258926       0.45592181       0.35820123 </v>
   <v>       0.54407819       0.51741074       0.41679877 </v>
   <v>       0.57482265       0.54815520       0.44609754 </v>
   <v>       0.44517794       0.43184422       0.32890246 </v>
   <v>       0.47592240       0.46258868       0.35820123 </v>
   <v>       0.53741132       0.52407760       0.41679877 </v>
   <v>       0.56815578       0.55482206       0.44609754 </v>
   <v>       0.43184422       0.44517794       0.32890246 </v>
   <v>       0.46258868       0.47592240       0.35820123 </v>
   <v>       0.52407760       0.53741132       0.41679877 </v>
   <v>       0.55482206       0.56815578       0.44609754 </v>
   <v>       0.42517735       0.45184480       0.32890246 </v>
   <v>       0.45592181       0.48258926       0.35820123 </v>
   <v>       0.51741074       0.54407819       0.41679877 </v>
   <v>       0.54815520       0.57482265       0.44609754 </v>
   <v>       0.43851108       0.43851108       0.30598949 </v>
   <v>       0.46925554       0.46925554       0.33528825 </v>
   <v>       0.53074446       0.53074446       0.39388579 </v>
   <v>       0.56148892       0.56148892       0.42318456 </v>
   <v>       0.43851108       0.43851108       0.31744598 </v>
   <v>       0.46925554       0.46925554       0.34674474 </v>
   <v>       0.53074446       0.53074446       0.40534228 </v>
   <v>       0.56148892       0.56148892       0.43464105 </v>
   <v>       0.43851108       0.43851108       0.34035895 </v>
   <v>       0.46925554       0.46925554       0.36965772 </v>
   <v>       0.53074446       0.53074446       0.42825526 </v>
   <v>       0.56148892       0.56148892       0.45755402 </v>
   <v>       0.43851108       0.43851108       0.35181544 </v>
   <v>       0.46925554       0.46925554       0.38111421 </v>
   <v>       0.53074446       0.53074446       0.43971175 </v>
   <v>       0.56148892       0.56148892       0.46901051 </v>
   <v>       0.51333372       0.48666628       0.36458702 </v>
   <v>       0.50666686       0.49333314       0.36458702 </v>
   <v>       0.49333314       0.50666686       0.36458702 </v>
   <v>       0.48666628       0.51333372       0.36458702 </v>
   <v>       0.51333372       0.48666628       0.37604351 </v>
   <v>       0.50666686       0.49333314       0.37604351 </v>
   <v>       0.49333314       0.50666686       0.37604351 </v>
   <v>       0.48666628       0.51333372       0.37604351 </v>
   <v>       0.51333372       0.48666628       0.39895649 </v>
   <v>       0.50666686       0.49333314       0.39895649 </v>
   <v>       0.49333314       0.50666686       0.39895649 </v>
   <v>       0.48666628       0.51333372       0.39895649 </v>
   <v>       0.51333372       0.48666628       0.41041298 </v>
   <v>       0.50666686       0.49333314       0.41041298 </v>
   <v>       0.49333314       0.50666686       0.41041298 </v>
   <v>       0.48666628       0.51333372       0.41041298 </v>
  </varray>
  <varray name="weights" >
   <v>       0.01639344 </v>
   <v>       0.01639344 </v>
   <v>       0.01639344 </v>
   <v>       0.01639344 </v>
   <v>       0.01639344 </v>
   <v>       0.01639344 </v>
   <v>       0.01639344 </v>
   <v>       0.01639344 </v>
   <v>       0.01639344 </v>
   <v>       0.01639344 </v>
   <v>       0.01639344 </v>
   <v>       0.01639344 </v>
   <v>       0.01639344 </v>
   <v>       0.01639344 </v>
   <v>       0.01639344 </v>
   <v>       0.01639344 </v>
   <v>       0.01639344 </v>
   <v>       0.01639344 </v>
   <v>       0.01639344 </v>
   <v>       0.01639344 </v>
   <v>       0.01639344 </v>
   <v>       0.01639344 </v>
   <v>       0.01639344 </v>
   <v>       0.01639344 </v>
   <v>       0.01639344 </v>
   <v>       0.01639344 </v>
   <v>       0.01639344 </v>
   <v>       0.01639344 </v>
   <v>       0.01639344 </v>
   <v>       0.01639344 </v>
   <v>       0.01639344 </v>
   <v>       0.01639344 </v>
   <v>       0.01639344 </v>
   <v>       0.01639344 </v>
   <v>       0.01639344 </v>
   <v>       0.01639344 </v>
   <v>       0.01639344 </v>
   <v>       0.01639344 </v>
   <v>       0.01639344 </v>
   <v>       0.01639344 </v>
   <v>       0.01639344 </v>
   <v>       0.01639344 </v>
   <v>       0.01639344 </v>
   <v>       0.01639344 </v>
   <v>       0.01639344 </v>
   <v>       0.01639344 </v>
   <v>       0.01639344 </v>
   <v>       0.01639344 </v>
   <v>       0.01639344 </v>
   <v>       0.01639344 </v>
   <v>       0.01639344 </v>
   <v>       0.01639344 </v>
   <v>       0.01639344 </v>
   <v>       0.01639344 </v>
   <v>       0.01639344 </v>
   <v>       0.01639344 </v>
   <v>       0.01639344 </v>
   <v>       0.01639344 </v>
   <v>       0.01639344 </v>
   <v>       0.01639344 </v>
   <v>       0.01639344 </v>
  </varray>
 </kpoints>
 <parameters>
  <separator name="general" >
   <i type="string" name="SYSTEM">BiTe</i>
   <i type="logical" name="LCOMPAT"> F  </i>
  </separator>
  <separator name="electronic" >
   <i type="string" name="PREC">accura</i>
   <i name="ENMAX">    600.00000000</i>
   <i name="ENAUG">    368.79200000</i>
   <i name="EDIFF">      0.00000010</i>
   <i type="int" name="IALGO">    58</i>
   <i type="int" name="IWAVPR">    10</i>
   <i type="int" name="NBANDS">    88</i>
   <i name="NELECT">     28.00000000</i>
   <i type="int" name="TURBO">     0</i>
   <i type="int" name="IRESTART">     0</i>
   <i type="int" name="NREBOOT">     0</i>
   <i type="int" name="NMIN">     0</i>
   <i name="EREF">      0.00000000</i>
   <separator name="electronic smearing" >
    <i type="int" name="ISMEAR">     0</i>
    <i name="SIGMA">      0.01000000</i>
    <i name="KSPACING">      0.50000000</i>
    <i type="logical" name="KGAMMA"> T  </i>
   </separator>
   <separator name="electronic projectors" >
    <i type="logical" name="LREAL"> F  </i>
    <v name="ROPT">      0.00000000      0.00000000</v>
    <i type="int" name="LMAXPAW">  -100</i>
    <i type="int" name="LMAXMIX">     4</i>
    <i type="logical" name="NLSPLINE"> F  </i>
   </separator>
   <separator name="electronic startup" >
    <i type="int" name="ISTART">     0</i>
    <i type="int" name="ICHARG">    11</i>
    <i type="int" name="INIWAV">     1</i>
   </separator>
   <separator name="electronic spin" >
    <i type="int" name="ISPIN">     1</i>
    <i type="logical" name="LNONCOLLINEAR"> T  </i>
    <v name="MAGMOM">      1.00000000      1.00000000      1.00000000      1.00000000      1.00000000      1.00000000      1.00000000      1.00000000      1.00000000      1.00000000      1.00000000      1.00000000      1.00000000      1.00000000      1.00000000</v>
    <i name="NUPDOWN">     -1.00000000</i>
    <i type="logical" name="LSORBIT"> T  </i>
    <v name="SAXIS">      0.00000000      0.00000000      1.00000000</v>
    <i type="logical" name="LSPIRAL"> F  </i>
    <v name="QSPIRAL">      0.00000000      0.00000000      0.00000000</v>
    <i type="logical" name="LZEROZ"> F  </i>
   </separator>
   <separator name="electronic exchange-correlation" >
    <i type="logical" name="LASPH"> F  </i>
    <i type="logical" name="LMETAGGA"> F  </i>
   </separator>
   <separator name="electronic convergence" >
    <i type="int" name="NELM">    60</i>
    <i type="int" name="NELMDL">     0</i>
    <i type="int" name="NELMIN">     2</i>
    <i name="ENINI">    600.00000000</i>
    <separator name="electronic convergence detail" >
     <i type="logical" name="LDIAG"> T  </i>
     <i type="logical" name="LSUBROT"> F  </i>
     <i name="WEIMIN">      0.00000000</i>
     <i name="EBREAK">      0.00000000</i>
     <i name="DEPER">      0.30000000</i>
     <i type="int" name="NRMM">     4</i>
     <i name="TIME">      0.40000000</i>
    </separator>
   </separator>
   <separator name="electronic mixer" >
    <i name="AMIX">      0.40000000</i>
    <i name="BMIX">      1.00000000</i>
    <i name="AMIN">      0.10000000</i>
    <i name="AMIX_MAG">      1.60000000</i>
    <i name="BMIX_MAG">      1.00000000</i>
    <separator name="electronic mixer details" >
     <i type="int" name="IMIX">     4</i>
     <i type="logical" name="MIXFIRST"> F  </i>
     <i type="int" name="MAXMIX">   -45</i>
     <i name="WC">    100.00000000</i>
     <i type="int" name="INIMIX">     1</i>
     <i type="int" name="MIXPRE">     1</i>
     <i type="int" name="MREMOVE">     5</i>
    </separator>
   </separator>
   <separator name="electronic dipolcorrection" >
    <i type="logical" name="LDIPOL"> F  </i>
    <i type="logical" name="LMONO"> F  </i>
    <i type="int" name="IDIPOL">     0</i>
    <i name="EPSILON">      1.00000000</i>
    <v name="DIPOL">   -100.00000000   -100.00000000   -100.00000000</v>
    <i name="EFIELD">      0.00000000</i>
   </separator>
  </separator>
  <separator name="grids" >
   <i type="int" name="NGX">    84</i>
   <i type="int" name="NGY">    84</i>
   <i type="int" name="NGZ">    84</i>
   <i type="int" name="NGXF">   168</i>
   <i type="int" name="NGYF">   168</i>
   <i type="int" name="NGZF">   168</i>
   <i type="logical" name="ADDGRID"> T  </i>
  </separator>
  <separator name="ionic" >
   <i type="int" name="NSW">     0</i>
   <i type="int" name="IBRION">    -1</i>
   <i type="int" name="MDALGO">     0</i>
   <i type="int" name="ISIF">     2</i>
   <i name="PSTRESS">      0.00000000</i>
   <i name="EDIFFG">     -0.00100000</i>
   <i type="int" name="NFREE">     0</i>
   <i name="POTIM">      0.50000000</i>
   <i name="SMASS">     -3.00000000</i>
   <i name="SCALEE">      1.00000000</i>
  </separator>
  <separator name="ionic md" >
   <i name="TEBEG">      0.00010000</i>
   <i name="TEEND">      0.00010000</i>
   <i type="int" name="NBLOCK">     1</i>
   <i type="int" name="KBLOCK">     1</i>
   <i type="int" name="NPACO">   256</i>
   <i name="APACO">     16.00000000</i>
  </separator>
  <separator name="symmetry" >
   <i type="int" name="ISYM">    -1</i>
   <i name="SYMPREC">      0.00001000</i>
  </separator>
  <separator name="dos" >
   <i type="int" name="LORBIT">     0</i>
   <v name="RWIGS">     -1.00000000     -1.00000000</v>
   <i type="int" name="NEDOS">   301</i>
   <i name="EMIN">     10.00000000</i>
   <i name="EMAX">    -10.00000000</i>
   <i name="EFERMI">      0.00000000</i>
  </separator>
  <separator name="writing" >
   <i type="int" name="NWRITE">     2</i>
   <i type="logical" name="LWAVE"> F  </i>
   <i type="logical" name="LDOWNSAMPLE"> F  </i>
   <i type="logical" name="LCHARG"> F  </i>
   <i type="logical" name="LPARD"> F  </i>
   <i type="logical" name="LVTOT"> F  </i>
   <i type="logical" name="LVHAR"> F  </i>
   <i type="logical" name="LELF"> F  </i>
   <i type="logical" name="LOPTICS"> F  </i>
   <v name="STM">      0.00000000      0.00000000      0.00000000      0.00000000      0.00000000      0.00000000      0.00000000</v>
  </separator>
  <separator name="performance" >
   <i type="int" name="NPAR">     4</i>
   <i type="int" name="NSIM">     4</i>
   <i type="int" name="NBLK">    -1</i>
   <i type="logical" name="LPLANE"> T  </i>
   <i type="logical" name="LSCALAPACK"> T  </i>
   <i type="logical" name="LSCAAWARE"> F  </i>
   <i type="logical" name="LSCALU"> F  </i>
   <i type="logical" name="LASYNC"> F  </i>
   <i type="logical" name="LORBITALREAL"> F  </i>
  </separator>
  <separator name="miscellaneous" >
   <i type="int" name="IDIOT">     3</i>
   <i type="int" name="ISPECIAL">     0</i>
   <i type="logical" name="LMUSIC"> F  </i>
   <v name="POMASS">    208.98000000    127.60000000</v>
   <v name="DARWINR">      0.00000000      0.00000000</v>
   <v name="DARWINV">      1.00000000      1.00000000</v>
   <i type="logical" name="LCORR"> T  </i>
  </separator>
  <i type="logical" name="GGA_COMPAT"> F  </i>
  <i type="logical" name="LBERRY"> F  </i>
  <i type="int" name="ICORELEVEL">     0</i>
  <i type="logical" name="LDAU"> F  </i>
  <i type="int" name="I_CONSTRAINED_M">     0</i>
  <separator name="electronic exchange-correlation" >
   <i type="string" name="GGA">--</i>
   <i type="int" name="VOSKOWN">     0</i>
   <i type="logical" name="LHFCALC"> F  </i>
   <i type="string" name="PRECFOCK"></i>
   <i type="logical" name="LSYMGRAD"> F  </i>
   <i type="logical" name="LHFONE"> F  </i>
   <i type="logical" name="LRHFCALC"> F  </i>
   <i type="logical" name="LTHOMAS"> F  </i>
   <i type="logical" name="LMODELHF"> F  </i>
   <i name="ENCUT4O">     -1.00000000</i>
   <i type="int" name="EXXOEP">     0</i>
   <i type="int" name="FOURORBIT">     0</i>
   <i name="AEXX">      0.00000000</i>
   <i name="HFALPHA">      0.00000000</i>
   <i name="MCALPHA">      0.00000000</i>
   <i name="ALDAX">      1.00000000</i>
   <i name="AGGAX">      1.00000000</i>
   <i name="ALDAC">      1.00000000</i>
   <i name="AGGAC">      1.00000000</i>
   <i type="int" name="NKREDX">     1</i>
   <i type="int" name="NKREDY">     1</i>
   <i type="int" name="NKREDZ">     1</i>
   <i type="logical" name="SHIFTRED"> F  </i>
   <i type="logical" name="ODDONLY"> F  </i>
   <i type="logical" name="EVENONLY"> F  </i>
   <i type="int" name="LMAXFOCK">     0</i>
   <i type="int" name="NMAXFOCKAE">     0</i>
   <i type="logical" name="LFOCKAEDFT"> F  </i>
   <i name="HFSCREEN">      0.00000000</i>
   <i name="HFSCREENC">      0.00000000</i>
   <i type="int" name="NBANDSGWLOW">     0</i>
  </separator>
  <separator name="vdW DFT" >
   <i type="logical" name="LUSE_VDW"> F  </i>
   <i name="Zab_VDW">     -0.84910000</i>
   <i name="PARAM1">      0.12340000</i>
   <i name="PARAM2">      1.00000000</i>
   <i name="PARAM3">      0.00000000</i>
  </separator>
  <separator name="model GW" >
   <i type="int" name="MODEL_GW">     0</i>
   <i name="MODEL_EPS0">     20.71543870</i>
   <i name="MODEL_ALPHA">      1.00000000</i>
  </separator>
  <separator name="linear response parameters" >
   <i type="logical" name="LEPSILON"> F  </i>
   <i type="logical" name="LRPA"> F  </i>
   <i type="logical" name="LNABLA"> F  </i>
   <i type="logical" name="LVEL"> F  </i>
   <i type="int" name="KINTER">     0</i>
   <i name="CSHIFT">      0.10000000</i>
   <i name="OMEGAMAX">     -1.00000000</i>
   <i name="DEG_THRESHOLD">      0.00200000</i>
   <i name="RTIME">     -0.10000000</i>
   <i name="WPLASMAI">      0.00000000</i>
   <v name="DFIELD">      0.00000000      0.00000000      0.00000000</v>
   <v name="WPLASMA">      0.00000000      0.00000000      0.00000000      0.00000000      0.00000000      0.00000000      0.00000000      0.00000000      0.00000000</v>
  </separator>
  <separator name="orbital magnetization" >
   <i type="logical" name="NUCIND"> F  </i>
   <v name="MAGPOS">      0.00000000      0.00000000      0.00000000</v>
   <i type="logical" name="LNICSALL"> T  </i>
   <i type="logical" name="ORBITALMAG"> F  </i>
   <i type="logical" name="LMAGBLOCH"> F  </i>
   <i type="logical" name="LCHIMAG"> F  </i>
   <i type="logical" name="LGAUGE"> T  </i>
   <i type="int" name="MAGATOM">     0</i>
   <v name="MAGDIPOL">      0.00000000      0.00000000      0.00000000</v>
   <v name="AVECCONST">      0.00000000      0.00000000      0.00000000</v>
  </separator>
  <separator name="response functions" >
   <i type="logical" name="LADDER"> F  </i>
   <i type="logical" name="LRPAFORCE"> F  </i>
   <i type="logical" name="LFXC"> F  </i>
   <i type="logical" name="LHARTREE"> T  </i>
   <i type="int" name="IBSE">     0</i>
   <v type="int" name="KPOINT">    -1     0     0     0</v>
   <i type="logical" name="LTCTE"> F  </i>
   <i type="logical" name="LTETE"> F  </i>
   <i type="logical" name="LTRIPLET"> F  </i>
   <i type="logical" name="LFXCEPS"> F  </i>
   <i type="logical" name="LFXHEG"> F  </i>
   <i type="int" name="NATURALO">     2</i>
   <i type="logical" name="L2ORDER"> F  </i>
   <i type="logical" name="LMP2LT"> F  </i>
   <i type="logical" name="LUSEW"> F  </i>
   <i name="ENCUTGW">     -2.00000000</i>
   <i name="ENCUTGWSOFT">     -2.00000000</i>
   <i name="ENCUTLF">     -1.00000000</i>
   <i type="int" name="LMAXMP2">    -1</i>
   <i name="SCISSOR">      0.00000000</i>
   <i type="int" name="NOMEGA">     0</i>
   <i type="int" name="NOMEGAR">     0</i>
   <i type="int" name="NBANDSGW">    -1</i>
   <i type="int" name="NBANDSO">    -1</i>
   <i type="int" name="NBANDSV">    -1</i>
   <i type="int" name="NELM">     1</i>
   <i type="int" name="NELMHF">     1</i>
   <i type="int" name="DIM">     3</i>
   <i type="int" name="ANTIRES">     0</i>
   <i name="OMEGAMAX">    -30.00000000</i>
   <i name="OMEGAMIN">    -30.00000000</i>
   <i name="OMEGATL">   -200.00000000</i>
   <i type="int" name="OMEGAGRID">   140</i>
   <i name="CSHIFT">     -0.10000000</i>
   <i type="logical" name="SELFENERGY"> F  </i>
   <i type="logical" name="LSPECTRAL"> F  </i>
   <i type="logical" name="LSPECTRALGW"> F  </i>
   <i type="logical" name="LSINGLES"> F  </i>
   <i type="logical" name="LFERMIGW"> F  </i>
   <i type="logical" name="ODDONLYGW"> F  </i>
   <i type="logical" name="EVENONLYGW"> F  </i>
   <i type="int" name="NKREDLFX">     1</i>
   <i type="int" name="NKREDLFY">     1</i>
   <i type="int" name="NKREDLFZ">     1</i>
   <i type="int" name="MAXMEM">  2800</i>
   <i type="int" name="TELESCOPE">     0</i>
   <i type="int" name="TAUPAR">     1</i>
   <i type="int" name="OMEGAPAR">    -1</i>
   <i name="LAMBDA">      1.00000000</i>
  </separator>
  <separator name="External order field" >
   <i name="OFIELD_KAPPA">      0.00000000</i>
   <v name="OFIELD_K">      0.00000000      0.00000000      0.00000000</v>
   <i name="OFIELD_Q6_NEAR">      0.00000000</i>
   <i name="OFIELD_Q6_FAR">      0.00000000</i>
   <i name="OFIELD_A">      0.00000000</i>
  </separator>
 </parameters>
 <atominfo>
  <atoms>       5 </atoms>
  <types>       2 </types>
  <array name="atoms" >
   <dimension dim="1">ion</dimension>
   <field type="string">element</field>
   <field type="int">atomtype</field>
   <set>
    <rc><c>Bi</c><c>   1</c></rc>
    <rc><c>Bi</c><c>   1</c></rc>
    <rc><c>Te</c><c>   2</c></rc>
    <rc><c>Te</c><c>   2</c></rc>
    <rc><c>Te</c><c>   2</c></rc>
   </set>
  </array>
  <array name="atomtypes" >
   <dimension dim="1">type</dimension>
   <field type="int">atomspertype</field>
   <field type="string">element</field>
   <field>mass</field>
   <field>valence</field>
   <field type="string">pseudopotential</field>
   <set>
    <rc><c>   2</c><c>Bi</c><c>    208.98000000</c><c>      5.00000000</c><c>  PAW_PBE Bi 08Apr2002                  </c></rc>
    <rc><c>   3</c><c>Te</c><c>    127.60000000</c><c>      6.00000000</c><c>  PAW_PBE Te 08Apr2002                  </c></rc>
   </set>
  </array>
 </atominfo>
 <structure name="initialpos" >
  <crystal>
   <varray name="basis" >
    <v>      10.22228271      -2.21667734       0.00000000 </v>
    <v>      10.22228271       2.21667734       0.00000000 </v>
    <v>       9.74160157       0.00000000       3.80918902 </v>
   </varray>
   <i name="volume">    172.62865583 </i>
   <varray name="rec_basis" >
    <v>       0.04891275      -0.22556282      -0.12508924 </v>
    <v>       0.04891275       0.22556282      -0.12508924 </v>
    <v>      -0.00000000       0.00000000       0.26252307 </v>
   </varray>
  </crystal>
  <varray name="positions" >
   <v>       0.39979833       0.39979833       0.39979833 </v>
   <v>       0.60020167       0.60020167       0.60020167 </v>
   <v>       0.00000000       0.00000000       0.00000000 </v>
   <v>       0.21048582       0.21048582       0.21048582 </v>
   <v>       0.78951418       0.78951418       0.78951418 </v>
  </varray>
 </structure>
 <calculation>
  <scstep>
   <time name="total">  138.01  138.35</time>
   <energy>
    <i name="alphaZ">      5.99831677 </i>
    <i name="ewald">   -983.58522533 </i>
    <i name="hartreedc">    -59.98562904 </i>
    <i name="XCdc">   -303.85049003 </i>
    <i name="pawpsdc">   1910.19755357 </i>
    <i name="pawaedc">  -1561.17602897 </i>
    <i name="eentropy">     -0.00019818 </i>
    <i name="bandstr">    156.86000304 </i>
    <i name="atom">    971.44149227 </i>
    <i name="e_fr_energy">    135.89979410 </i>
    <i name="e_wo_entrp">    135.89999228 </i>
    <i name="e_0_energy">    135.89989319 </i>
   </energy>
  </scstep>
  <scstep>
   <time name="total">  150.44  150.76</time>
   <energy>
    <i name="e_fr_energy">      6.83863643 </i>
    <i name="e_wo_entrp">      6.83875895 </i>
    <i name="e_0_energy">      6.83869769 </i>
   </energy>
  </scstep>
  <scstep>
   <time name="total">  146.15  146.45</time>
   <energy>
    <i name="e_fr_energy">     -5.45448226 </i>
    <i name="e_wo_entrp">     -5.45448226 </i>
    <i name="e_0_energy">     -5.45448226 </i>
   </energy>
  </scstep>
  <scstep>
   <time name="total">  148.42  148.82</time>
   <energy>
    <i name="e_fr_energy">     -5.79263494 </i>
    <i name="e_wo_entrp">     -5.79263494 </i>
    <i name="e_0_energy">     -5.79263494 </i>
   </energy>
  </scstep>
  <scstep>
   <time name="total">  142.59  142.91</time>
   <energy>
    <i name="e_fr_energy">     -5.80037080 </i>
    <i name="e_wo_entrp">     -5.80037080 </i>
    <i name="e_0_energy">     -5.80037080 </i>
   </energy>
  </scstep>
  <scstep>
   <time name="total">  120.04  120.29</time>
   <energy>
    <i name="e_fr_energy">     -5.80037080 </i>
    <i name="e_wo_entrp">     -5.80037080 </i>
    <i name="e_0_energy">     -5.80037080 </i>
   </energy>
  </scstep>
  <scstep>
   <time name="total">  120.05  120.21</time>
   <energy>
    <i name="e_fr_energy">     -5.80063876 </i>
    <i name="e_wo_entrp">     -5.80063876 </i>
    <i name="e_0_energy">     -5.80063876 </i>
   </energy>
  </scstep>
  <scstep>
   <time name="total">  120.01  120.21</time>
   <energy>
    <i name="e_fr_energy">     -5.80071075 </i>
    <i name="e_wo_entrp">     -5.80071075 </i>
    <i name="e_0_energy">     -5.80071075 </i>
   </energy>
  </scstep>
  <scstep>
   <time name="total">  120.06  120.29</time>
   <energy>
    <i name="e_fr_energy">     -5.80073390 </i>
    <i name="e_wo_entrp">     -5.80073390 </i>
    <i name="e_0_energy">     -5.80073390 </i>
   </energy>
  </scstep>
  <scstep>
   <time name="total">  120.03  120.28</time>
   <energy>
    <i name="e_fr_energy">     -5.80073571 </i>
    <i name="e_wo_entrp">     -5.80073571 </i>
    <i name="e_0_energy">     -5.80073571 </i>
   </energy>
  </scstep>
  <scstep>
   <time name="total">  119.96  120.25</time>
   <energy>
    <i name="e_fr_energy">     -5.80073586 </i>
    <i name="e_wo_entrp">     -5.80073586 </i>
    <i name="e_0_energy">     -5.80073586 </i>
   </energy>
  </scstep>
  <scstep>
   <time name="total">  159.84  160.10</time>
   <energy>
    <i name="alphaZ">      5.99831677 </i>
    <i name="ewald">   -983.58522533 </i>
    <i name="hartreedc">    -59.98562904 </i>
    <i name="XCdc">   -303.85049003 </i>
    <i name="pawpsdc">   1910.19755357 </i>
    <i name="pawaedc">  -1561.17602897 </i>
    <i name="eentropy">     -0.00000000 </i>
    <i name="bandstr">     15.15927487 </i>
    <i name="atom">    971.44149227 </i>
    <i name="e_fr_energy">     -5.80073588 </i>
    <i name="e_wo_entrp">     -5.80073588 </i>
    <i name="e_0_energy">     -5.80073588 </i>
   </energy>
  </scstep>
  <structure>
   <crystal>
    <varray name="basis" >
     <v>      10.22228271      -2.21667734       0.00000000 </v>
     <v>      10.22228271       2.21667734       0.00000000 </v>
     <v>       9.74160157       0.00000000       3.80918902 </v>
    </varray>
    <i name="volume">    172.62865583 </i>
    <varray name="rec_basis" >
     <v>       0.04891275      -0.22556282      -0.12508924 </v>
     <v>       0.04891275       0.22556282      -0.12508924 </v>
     <v>      -0.00000000       0.00000000       0.26252307 </v>
    </varray>
   </crystal>
   <varray name="positions" >
    <v>       0.39979833       0.39979833       0.39979833 </v>
    <v>       0.60020167       0.60020167       0.60020167 </v>
    <v>       0.00000000       0.00000000       0.00000000 </v>
    <v>       0.21048582       0.21048582       0.21048582 </v>
    <v>       0.78951418       0.78951418       0.78951418 </v>
   </varray>
  </structure>
  <varray name="forces" >
   <v>       0.18525860       0.00000467       0.28792793 </v>
   <v>      -0.18525673       0.00000482      -0.28792890 </v>
   <v>      -0.00000069      -0.00000302       0.00000057 </v>
   <v>       0.31519335      -0.00000335       0.74170922 </v>
   <v>      -0.31519453      -0.00000313      -0.74170883 </v>
  </varray>
  <varray name="stress" >
   <v>     109.17233053      -0.00000547     -77.69375434 </v>
   <v>      -0.00000418     380.09397821       0.00000971 </v>
   <v>     -77.69375372       0.00001018     329.19784488 </v>
  </varray>
  <energy>
   <i name="e_fr_energy">     -7.24079509 </i>
   <i name="e_wo_entrp">     -7.24079509 </i>
   <i name="e_0_energy">     -0.00000000 </i>
  </energy>
  <time name="totalsc"> 1734.83 1738.59</time>
  <eigenvalues>
   <array>
    <dimension dim="1">band</dimension>
    <dimension dim="2">kpoint</dimension>
    <dimension dim="3">spin</dimension>
    <field>eigene</field>
    <field>occ</field>
    <set>
     <set comment="spin 1">
      <set comment="kpoint 1">
       <r>   -7.4038    1.0000 </r>
       <r>   -7.4038    1.0000 </r>
       <r>   -7.1443    1.0000 </r>
       <r>   -7.1443    1.0000 </r>
       <r>   -5.2751    1.0000 </r>
       <r>   -5.2751    1.0000 </r>
       <r>   -4.0806    1.0000 </r>
       <r>   -4.0806    1.0000 </r>
       <r>   -2.4889    1.0000 </r>
       <r>   -2.4889    1.0000 </r>
       <r>    2.4457    1.0000 </r>
       <r>    2.4457    1.0000 </r>
       <r>    2.4953    1.0000 </r>
       <r>    2.4953    1.0000 </r>
       <r>    3.1167    1.0000 </r>
       <r>    3.1167    1.0000 </r>
       <r>    3.5601    1.0000 </r>
       <r>    3.5601    1.0000 </r>
       <r>    3.7787    1.0000 </r>
       <r>    3.7787    1.0000 </r>
       <r>    3.9647    1.0000 </r>
       <r>    3.9647    1.0000 </r>
       <r>    4.5801    1.0000 </r>
       <r>    4.5801    1.0000 </r>
       <r>    4.7945    1.0000 </r>
       <r>    4.7945    1.0000 </r>
       <r>    5.3428    1.0000 </r>
       <r>    5.3429    1.0000 </r>
       <r>    5.5307    0.0000 </r>
       <r>    5.5307    0.0000 </r>
       <r>    6.3633    0.0000 </r>
       <r>    6.3633    0.0000 </r>
       <r>    6.7669    0.0000 </r>
       <r>    6.7669    0.0000 </r>
       <r>    7.3556    0.0000 </r>
       <r>    7.3556    0.0000 </r>
       <r>    8.1202    0.0000 </r>
       <r>    8.1202    0.0000 </r>
       <r>    8.3234    0.0000 </r>
       <r>    8.3234    0.0000 </r>
       <r>   10.4187    0.0000 </r>
       <r>   10.4187    0.0000 </r>
       <r>   10.6052    0.0000 </r>
       <r>   10.6052    0.0000 </r>
       <r>   11.0752    0.0000 </r>
       <r>   11.0753    0.0000 </r>
       <r>   11.2768    0.0000 </r>
       <r>   11.2768    0.0000 </r>
       <r>   11.9090    0.0000 </r>
       <r>   11.9090    0.0000 </r>
       <r>   12.6061    0.0000 </r>
       <r>   12.6062    0.0000 </r>
       <r>   12.7172    0.0000 </r>
       <r>   12.7172    0.0000 </r>
       <r>   12.9298    0.0000 </r>
       <r>   12.9299    0.0000 </r>
       <r>   13.1624    0.0000 </r>
       <r>   13.1624    0.0000 </r>
       <r>   13.2294    0.0000 </r>
       <r>   13.2295    0.0000 </r>
       <r>   13.5977    0.0000 </r>
       <r>   13.5977    0.0000 </r>
       <r>   13.9093    0.0000 </r>
       <r>   13.9094    0.0000 </r>
       <r>   14.3830    0.0000 </r>
       <r>   14.3830    0.0000 </r>
       <r>   14.8699    0.0000 </r>
       <r>   14.8700    0.0000 </r>
       <r>   15.2101    0.0000 </r>
       <r>   15.2102    0.0000 </r>
       <r>   15.6450    0.0000 </r>
       <r>   15.6450    0.0000 </r>
       <r>   16.8879    0.0000 </r>
       <r>   16.8879    0.0000 </r>
       <r>   17.0026    0.0000 </r>
       <r>   17.0026    0.0000 </r>
       <r>   17.6679    0.0000 </r>
       <r>   17.6680    0.0000 </r>
       <r>   18.1697    0.0000 </r>
       <r>   18.1698    0.0000 </r>
       <r>   18.3537    0.0000 </r>
       <r>   18.3539    0.0000 </r>
       <r>   18.8991    0.0000 </r>
       <r>   18.8997    0.0000 </r>
       <r>   19.1005    0.0000 </r>
       <r>   19.1033    0.0000 </r>
       <r>   19.5523    0.0000 </r>
       <r>   19.5718    0.0000 </r>
      </set>
      <set comment="kpoint 2">
       <r>   -7.4280    1.0000 </r>
       <r>   -7.4280    1.0000 </r>
       <r>   -7.1204    1.0000 </r>
       <r>   -7.1204    1.0000 </r>
       <r>   -5.3171    1.0000 </r>
       <r>   -5.3171    1.0000 </r>
       <r>   -4.0278    1.0000 </r>
       <r>   -4.0278    1.0000 </r>
       <r>   -2.5046    1.0000 </r>
       <r>   -2.5046    1.0000 </r>
       <r>    2.4853    1.0000 </r>
       <r>    2.4853    1.0000 </r>
       <r>    2.5129    1.0000 </r>
       <r>    2.5129    1.0000 </r>
       <r>    3.1048    1.0000 </r>
       <r>    3.1049    1.0000 </r>
       <r>    3.5658    1.0000 </r>
       <r>    3.5658    1.0000 </r>
       <r>    3.7623    1.0000 </r>
       <r>    3.7623    1.0000 </r>
       <r>    3.9760    1.0000 </r>
       <r>    3.9760    1.0000 </r>
       <r>    4.5843    1.0000 </r>
       <r>    4.5843    1.0000 </r>
       <r>    4.8856    1.0000 </r>
       <r>    4.8856    1.0000 </r>
       <r>    5.3498    1.0000 </r>
       <r>    5.3498    1.0000 </r>
       <r>    5.5061    0.0000 </r>
       <r>    5.5061    0.0000 </r>
       <r>    6.2797    0.0000 </r>
       <r>    6.2797    0.0000 </r>
       <r>    6.7286    0.0000 </r>
       <r>    6.7286    0.0000 </r>
       <r>    7.3747    0.0000 </r>
       <r>    7.3747    0.0000 </r>
       <r>    8.1289    0.0000 </r>
       <r>    8.1289    0.0000 </r>
       <r>    8.3222    0.0000 </r>
       <r>    8.3222    0.0000 </r>
       <r>   10.4599    0.0000 </r>
       <r>   10.4600    0.0000 </r>
       <r>   10.5819    0.0000 </r>
       <r>   10.5819    0.0000 </r>
       <r>   11.0469    0.0000 </r>
       <r>   11.0470    0.0000 </r>
       <r>   11.2335    0.0000 </r>
       <r>   11.2335    0.0000 </r>
       <r>   12.0756    0.0000 </r>
       <r>   12.0756    0.0000 </r>
       <r>   12.5233    0.0000 </r>
       <r>   12.5233    0.0000 </r>
       <r>   12.8725    0.0000 </r>
       <r>   12.8725    0.0000 </r>
       <r>   12.9603    0.0000 </r>
       <r>   12.9604    0.0000 </r>
       <r>   13.0209    0.0000 </r>
       <r>   13.0209    0.0000 </r>
       <r>   13.0750    0.0000 </r>
       <r>   13.0750    0.0000 </r>
       <r>   13.5976    0.0000 </r>
       <r>   13.5977    0.0000 </r>
       <r>   13.6648    0.0000 </r>
       <r>   13.6648    0.0000 </r>
       <r>   14.6044    0.0000 </r>
       <r>   14.6044    0.0000 </r>
       <r>   15.0408    0.0000 </r>
       <r>   15.0408    0.0000 </r>
       <r>   15.3246    0.0000 </r>
       <r>   15.3247    0.0000 </r>
       <r>   15.4627    0.0000 </r>
       <r>   15.4627    0.0000 </r>
       <r>   16.5527    0.0000 </r>
       <r>   16.5527    0.0000 </r>
       <r>   16.7836    0.0000 </r>
       <r>   16.7836    0.0000 </r>
       <r>   17.9939    0.0000 </r>
       <r>   17.9939    0.0000 </r>
       <r>   18.4444    0.0000 </r>
       <r>   18.4444    0.0000 </r>
       <r>   18.5923    0.0000 </r>
       <r>   18.5924    0.0000 </r>
       <r>   18.7061    0.0000 </r>
       <r>   18.7073    0.0000 </r>
       <r>   19.1523    0.0000 </r>
       <r>   19.1573    0.0000 </r>
       <r>   19.3545    0.0000 </r>
       <r>   19.3694    0.0000 </r>
      </set>
      <set comment="kpoint 3">
       <r>   -7.4144    1.0000 </r>
       <r>   -7.4144    1.0000 </r>
       <r>   -7.1350    1.0000 </r>
       <r>   -7.1350    1.0000 </r>
       <r>   -5.2924    1.0000 </r>
       <r>   -5.2924    1.0000 </r>
       <r>   -4.0592    1.0000 </r>
       <r>   -4.0591    1.0000 </r>
       <r>   -2.4942    1.0000 </r>
       <r>   -2.4942    1.0000 </r>
       <r>    2.4675    1.0000 </r>
       <r>    2.4676    1.0000 </r>
       <r>    2.5030    1.0000 </r>
       <r>    2.5030    1.0000 </r>
       <r>    3.1091    1.0000 </r>
       <r>    3.1091    1.0000 </r>
       <r>    3.5630    1.0000 </r>
       <r>    3.5630    1.0000 </r>
       <r>    3.7707    1.0000 </r>
       <r>    3.7707    1.0000 </r>
       <r>    3.9669    1.0000 </r>
       <r>    3.9669    1.0000 </r>
       <r>    4.5853    1.0000 </r>
       <r>    4.5854    1.0000 </r>
       <r>    4.8420    1.0000 </r>
       <r>    4.8420    1.0000 </r>
       <r>    5.3527    1.0000 </r>
       <r>    5.3527    1.0000 </r>
       <r>    5.5105    0.0000 </r>
       <r>    5.5105    0.0000 </r>
       <r>    6.3205    0.0000 </r>
       <r>    6.3205    0.0000 </r>
       <r>    6.7455    0.0000 </r>
       <r>    6.7455    0.0000 </r>
       <r>    7.3650    0.0000 </r>
       <r>    7.3650    0.0000 </r>
       <r>    8.1278    0.0000 </r>
       <r>    8.1278    0.0000 </r>
       <r>    8.3241    0.0000 </r>
       <r>    8.3241    0.0000 </r>
       <r>   10.4495    0.0000 </r>
       <r>   10.4495    0.0000 </r>
       <r>   10.5862    0.0000 </r>
       <r>   10.5862    0.0000 </r>
       <r>   11.0557    0.0000 </r>
       <r>   11.0557    0.0000 </r>
       <r>   11.2529    0.0000 </r>
       <r>   11.2529    0.0000 </r>
       <r>   11.9908    0.0000 </r>
       <r>   11.9909    0.0000 </r>
       <r>   12.5783    0.0000 </r>
       <r>   12.5783    0.0000 </r>
       <r>   12.8144    0.0000 </r>
       <r>   12.8145    0.0000 </r>
       <r>   12.9315    0.0000 </r>
       <r>   12.9315    0.0000 </r>
       <r>   13.0737    0.0000 </r>
       <r>   13.0737    0.0000 </r>
       <r>   13.1357    0.0000 </r>
       <r>   13.1358    0.0000 </r>
       <r>   13.5935    0.0000 </r>
       <r>   13.5935    0.0000 </r>
       <r>   13.7846    0.0000 </r>
       <r>   13.7846    0.0000 </r>
       <r>   14.4944    0.0000 </r>
       <r>   14.4945    0.0000 </r>
       <r>   14.9636    0.0000 </r>
       <r>   14.9636    0.0000 </r>
       <r>   15.3268    0.0000 </r>
       <r>   15.3268    0.0000 </r>
       <r>   15.4934    0.0000 </r>
       <r>   15.4934    0.0000 </r>
       <r>   16.7259    0.0000 </r>
       <r>   16.7260    0.0000 </r>
       <r>   16.8847    0.0000 </r>
       <r>   16.8847    0.0000 </r>
       <r>   17.8268    0.0000 </r>
       <r>   17.8269    0.0000 </r>
       <r>   18.3534    0.0000 </r>
       <r>   18.3537    0.0000 </r>
       <r>   18.5231    0.0000 </r>
       <r>   18.5232    0.0000 </r>
       <r>   18.7175    0.0000 </r>
       <r>   18.7184    0.0000 </r>
       <r>   19.2321    0.0000 </r>
       <r>   19.2353    0.0000 </r>
       <r>   19.4011    0.0000 </r>
       <r>   19.4204    0.0000 </r>
      </set>
      <set comment="kpoint 4">
       <r>   -7.3974    1.0000 </r>
       <r>   -7.3974    1.0000 </r>
       <r>   -7.1473    1.0000 </r>
       <r>   -7.1473    1.0000 </r>
       <r>   -5.2664    1.0000 </r>
       <r>   -5.2664    1.0000 </r>
       <r>   -4.0911    1.0000 </r>
       <r>   -4.0911    1.0000 </r>
       <r>   -2.4888    1.0000 </r>
       <r>   -2.4888    1.0000 </r>
       <r>    2.4225    1.0000 </r>
       <r>    2.4225    1.0000 </r>
       <r>    2.4875    1.0000 </r>
       <r>    2.4875    1.0000 </r>
       <r>    3.1271    1.0000 </r>
       <r>    3.1271    1.0000 </r>
       <r>    3.5559    1.0000 </r>
       <r>    3.5559    1.0000 </r>
       <r>    3.7857    1.0000 </r>
       <r>    3.7857    1.0000 </r>
       <r>    3.9709    1.0000 </r>
       <r>    3.9709    1.0000 </r>
       <r>    4.5674    1.0000 </r>
       <r>    4.5674    1.0000 </r>
       <r>    4.7468    1.0000 </r>
       <r>    4.7469    1.0000 </r>
       <r>    5.3247    1.0000 </r>
       <r>    5.3248    1.0000 </r>
       <r>    5.5614    0.0000 </r>
       <r>    5.5614    0.0000 </r>
       <r>    6.4062    0.0000 </r>
       <r>    6.4062    0.0000 </r>
       <r>    6.7924    0.0000 </r>
       <r>    6.7924    0.0000 </r>
       <r>    7.3473    0.0000 </r>
       <r>    7.3473    0.0000 </r>
       <r>    8.1069    0.0000 </r>
       <r>    8.1070    0.0000 </r>
       <r>    8.3193    0.0000 </r>
       <r>    8.3193    0.0000 </r>
       <r>   10.3759    0.0000 </r>
       <r>   10.3759    0.0000 </r>
       <r>   10.6342    0.0000 </r>
       <r>   10.6342    0.0000 </r>
       <r>   11.0995    0.0000 </r>
       <r>   11.0995    0.0000 </r>
       <r>   11.3049    0.0000 </r>
       <r>   11.3050    0.0000 </r>
       <r>   11.8342    0.0000 </r>
       <r>   11.8342    0.0000 </r>
       <r>   12.5925    0.0000 </r>
       <r>   12.5926    0.0000 </r>
       <r>   12.6271    0.0000 </r>
       <r>   12.6271    0.0000 </r>
       <r>   12.9749    0.0000 </r>
       <r>   12.9749    0.0000 </r>
       <r>   13.2594    0.0000 </r>
       <r>   13.2594    0.0000 </r>
       <r>   13.3288    0.0000 </r>
       <r>   13.3288    0.0000 </r>
       <r>   13.6110    0.0000 </r>
       <r>   13.6110    0.0000 </r>
       <r>   14.0355    0.0000 </r>
       <r>   14.0355    0.0000 </r>
       <r>   14.2767    0.0000 </r>
       <r>   14.2767    0.0000 </r>
       <r>   14.7668    0.0000 </r>
       <r>   14.7668    0.0000 </r>
       <r>   15.0903    0.0000 </r>
       <r>   15.0903    0.0000 </r>
       <r>   15.7961    0.0000 </r>
       <r>   15.7961    0.0000 </r>
       <r>   17.0391    0.0000 </r>
       <r>   17.0392    0.0000 </r>
       <r>   17.0937    0.0000 </r>
       <r>   17.0937    0.0000 </r>
       <r>   17.5546    0.0000 </r>
       <r>   17.5546    0.0000 </r>
       <r>   17.9816    0.0000 </r>
       <r>   17.9816    0.0000 </r>
       <r>   18.1849    0.0000 </r>
       <r>   18.1850    0.0000 </r>
       <r>   18.9037    0.0000 </r>
       <r>   18.9043    0.0000 </r>
       <r>   19.1026    0.0000 </r>
       <r>   19.1033    0.0000 </r>
       <r>   19.7416    0.0000 </r>
       <r>   19.8272    0.0000 </r>
      </set>
      <set comment="kpoint 5">
       <r>   -7.3957    1.0000 </r>
       <r>   -7.3957    1.0000 </r>
       <r>   -7.1431    1.0000 </r>
       <r>   -7.1431    1.0000 </r>
       <r>   -5.2667    1.0000 </r>
       <r>   -5.2667    1.0000 </r>
       <r>   -4.0903    1.0000 </r>
       <r>   -4.0903    1.0000 </r>
       <r>   -2.4939    1.0000 </r>
       <r>   -2.4939    1.0000 </r>
       <r>    2.3994    1.0000 </r>
       <r>    2.3994    1.0000 </r>
       <r>    2.4791    1.0000 </r>
       <r>    2.4791    1.0000 </r>
       <r>    3.1397    1.0000 </r>
       <r>    3.1397    1.0000 </r>
       <r>    3.5498    1.0000 </r>
       <r>    3.5498    1.0000 </r>
       <r>    3.7913    1.0000 </r>
       <r>    3.7913    1.0000 </r>
       <r>    3.9857    1.0000 </r>
       <r>    3.9857    1.0000 </r>
       <r>    4.5460    1.0000 </r>
       <r>    4.5460    1.0000 </r>
       <r>    4.7029    1.0000 </r>
       <r>    4.7029    1.0000 </r>
       <r>    5.3019    1.0000 </r>
       <r>    5.3019    1.0000 </r>
       <r>    5.5981    0.0000 </r>
       <r>    5.5981    0.0000 </r>
       <r>    6.4475    0.0000 </r>
       <r>    6.4475    0.0000 </r>
       <r>    6.8221    0.0000 </r>
       <r>    6.8221    0.0000 </r>
       <r>    7.3410    0.0000 </r>
       <r>    7.3410    0.0000 </r>
       <r>    8.0890    0.0000 </r>
       <r>    8.0890    0.0000 </r>
       <r>    8.3109    0.0000 </r>
       <r>    8.3109    0.0000 </r>
       <r>   10.3278    0.0000 </r>
       <r>   10.3279    0.0000 </r>
       <r>   10.6692    0.0000 </r>
       <r>   10.6692    0.0000 </r>
       <r>   11.1214    0.0000 </r>
       <r>   11.1215    0.0000 </r>
       <r>   11.3372    0.0000 </r>
       <r>   11.3373    0.0000 </r>
       <r>   11.7718    0.0000 </r>
       <r>   11.7719    0.0000 </r>
       <r>   12.5075    0.0000 </r>
       <r>   12.5075    0.0000 </r>
       <r>   12.5967    0.0000 </r>
       <r>   12.5967    0.0000 </r>
       <r>   13.0526    0.0000 </r>
       <r>   13.0526    0.0000 </r>
       <r>   13.3562    0.0000 </r>
       <r>   13.3562    0.0000 </r>
       <r>   13.4262    0.0000 </r>
       <r>   13.4263    0.0000 </r>
       <r>   13.6337    0.0000 </r>
       <r>   13.6337    0.0000 </r>
       <r>   14.1458    0.0000 </r>
       <r>   14.1458    0.0000 </r>
       <r>   14.1971    0.0000 </r>
       <r>   14.1971    0.0000 </r>
       <r>   14.6603    0.0000 </r>
       <r>   14.6603    0.0000 </r>
       <r>   14.9710    0.0000 </r>
       <r>   14.9710    0.0000 </r>
       <r>   15.9380    0.0000 </r>
       <r>   15.9380    0.0000 </r>
       <r>   17.0729    0.0000 </r>
       <r>   17.0729    0.0000 </r>
       <r>   17.1877    0.0000 </r>
       <r>   17.1878    0.0000 </r>
       <r>   17.5406    0.0000 </r>
       <r>   17.5406    0.0000 </r>
       <r>   17.7983    0.0000 </r>
       <r>   17.7983    0.0000 </r>
       <r>   18.0465    0.0000 </r>
       <r>   18.0466    0.0000 </r>
       <r>   18.7191    0.0000 </r>
       <r>   18.7191    0.0000 </r>
       <r>   19.2959    0.0000 </r>
       <r>   19.2966    0.0000 </r>
       <r>   19.9373    0.0000 </r>
       <r>   19.9541    0.0000 </r>
      </set>
      <set comment="kpoint 6">
       <r>   -7.3994    1.0000 </r>
       <r>   -7.3994    1.0000 </r>
       <r>   -7.1402    1.0000 </r>
       <r>   -7.1402    1.0000 </r>
       <r>   -5.2730    1.0000 </r>
       <r>   -5.2730    1.0000 </r>
       <r>   -4.0815    1.0000 </r>
       <r>   -4.0815    1.0000 </r>
       <r>   -2.4974    1.0000 </r>
       <r>   -2.4974    1.0000 </r>
       <r>    2.4313    1.0000 </r>
       <r>    2.4313    1.0000 </r>
       <r>    2.4925    1.0000 </r>
       <r>    2.4925    1.0000 </r>
       <r>    3.0609    1.0000 </r>
       <r>    3.0609    1.0000 </r>
       <r>    3.5626    1.0000 </r>
       <r>    3.5626    1.0000 </r>
       <r>    3.8345    1.0000 </r>
       <r>    3.8345    1.0000 </r>
       <r>    3.9707    1.0000 </r>
       <r>    3.9707    1.0000 </r>
       <r>    4.5297    1.0000 </r>
       <r>    4.5297    1.0000 </r>
       <r>    4.7831    1.0000 </r>
       <r>    4.7831    1.0000 </r>
       <r>    5.2096    1.0000 </r>
       <r>    5.2096    1.0000 </r>
       <r>    5.6842    0.0000 </r>
       <r>    5.6842    0.0000 </r>
       <r>    6.3613    0.0000 </r>
       <r>    6.3613    0.0000 </r>
       <r>    6.8040    0.0000 </r>
       <r>    6.8040    0.0000 </r>
       <r>    7.3414    0.0000 </r>
       <r>    7.3414    0.0000 </r>
       <r>    8.1293    0.0000 </r>
       <r>    8.1293    0.0000 </r>
       <r>    8.3338    0.0000 </r>
       <r>    8.3338    0.0000 </r>
       <r>   10.4297    0.0000 </r>
       <r>   10.4297    0.0000 </r>
       <r>   10.5776    0.0000 </r>
       <r>   10.5776    0.0000 </r>
       <r>   11.0740    0.0000 </r>
       <r>   11.0740    0.0000 </r>
       <r>   11.3032    0.0000 </r>
       <r>   11.3032    0.0000 </r>
       <r>   11.8445    0.0000 </r>
       <r>   11.8445    0.0000 </r>
       <r>   12.5881    0.0000 </r>
       <r>   12.5881    0.0000 </r>
       <r>   12.7882    0.0000 </r>
       <r>   12.7882    0.0000 </r>
       <r>   12.9263    0.0000 </r>
       <r>   12.9263    0.0000 </r>
       <r>   13.0913    0.0000 </r>
       <r>   13.0913    0.0000 </r>
       <r>   13.3506    0.0000 </r>
       <r>   13.3506    0.0000 </r>
       <r>   13.6095    0.0000 </r>
       <r>   13.6096    0.0000 </r>
       <r>   13.9603    0.0000 </r>
       <r>   13.9604    0.0000 </r>
       <r>   14.3724    0.0000 </r>
       <r>   14.3725    0.0000 </r>
       <r>   14.7401    0.0000 </r>
       <r>   14.7401    0.0000 </r>
       <r>   15.3728    0.0000 </r>
       <r>   15.3728    0.0000 </r>
       <r>   15.6500    0.0000 </r>
       <r>   15.6500    0.0000 </r>
       <r>   16.9056    0.0000 </r>
       <r>   16.9057    0.0000 </r>
       <r>   17.0137    0.0000 </r>
       <r>   17.0138    0.0000 </r>
       <r>   17.6563    0.0000 </r>
       <r>   17.6564    0.0000 </r>
       <r>   18.0099    0.0000 </r>
       <r>   18.0100    0.0000 </r>
       <r>   18.4844    0.0000 </r>
       <r>   18.4845    0.0000 </r>
       <r>   18.8515    0.0000 </r>
       <r>   18.8522    0.0000 </r>
       <r>   19.1364    0.0000 </r>
       <r>   19.1384    0.0000 </r>
       <r>   19.3976    0.0000 </r>
       <r>   19.4114    0.0000 </r>
      </set>
      <set comment="kpoint 7">
       <r>   -7.4027    1.0000 </r>
       <r>   -7.4027    1.0000 </r>
       <r>   -7.1433    1.0000 </r>
       <r>   -7.1433    1.0000 </r>
       <r>   -5.2746    1.0000 </r>
       <r>   -5.2746    1.0000 </r>
       <r>   -4.0808    1.0000 </r>
       <r>   -4.0808    1.0000 </r>
       <r>   -2.4910    1.0000 </r>
       <r>   -2.4910    1.0000 </r>
       <r>    2.4422    1.0000 </r>
       <r>    2.4422    1.0000 </r>
       <r>    2.4946    1.0000 </r>
       <r>    2.4946    1.0000 </r>
       <r>    3.1014    1.0000 </r>
       <r>    3.1014    1.0000 </r>
       <r>    3.5610    1.0000 </r>
       <r>    3.5610    1.0000 </r>
       <r>    3.7940    1.0000 </r>
       <r>    3.7940    1.0000 </r>
       <r>    3.9659    1.0000 </r>
       <r>    3.9659    1.0000 </r>
       <r>    4.5675    1.0000 </r>
       <r>    4.5675    1.0000 </r>
       <r>    4.7912    1.0000 </r>
       <r>    4.7913    1.0000 </r>
       <r>    5.2949    1.0000 </r>
       <r>    5.2949    1.0000 </r>
       <r>    5.5840    0.0000 </r>
       <r>    5.5840    0.0000 </r>
       <r>    6.3627    0.0000 </r>
       <r>    6.3627    0.0000 </r>
       <r>    6.7765    0.0000 </r>
       <r>    6.7765    0.0000 </r>
       <r>    7.3518    0.0000 </r>
       <r>    7.3518    0.0000 </r>
       <r>    8.1226    0.0000 </r>
       <r>    8.1226    0.0000 </r>
       <r>    8.3261    0.0000 </r>
       <r>    8.3261    0.0000 </r>
       <r>   10.4215    0.0000 </r>
       <r>   10.4216    0.0000 </r>
       <r>   10.5980    0.0000 </r>
       <r>   10.5980    0.0000 </r>
       <r>   11.0749    0.0000 </r>
       <r>   11.0749    0.0000 </r>
       <r>   11.2836    0.0000 </r>
       <r>   11.2837    0.0000 </r>
       <r>   11.8916    0.0000 </r>
       <r>   11.8916    0.0000 </r>
       <r>   12.6013    0.0000 </r>
       <r>   12.6014    0.0000 </r>
       <r>   12.7363    0.0000 </r>
       <r>   12.7363    0.0000 </r>
       <r>   12.9281    0.0000 </r>
       <r>   12.9281    0.0000 </r>
       <r>   13.1334    0.0000 </r>
       <r>   13.1334    0.0000 </r>
       <r>   13.2721    0.0000 </r>
       <r>   13.2721    0.0000 </r>
       <r>   13.5997    0.0000 </r>
       <r>   13.5997    0.0000 </r>
       <r>   13.9231    0.0000 </r>
       <r>   13.9231    0.0000 </r>
       <r>   14.3810    0.0000 </r>
       <r>   14.3810    0.0000 </r>
       <r>   14.8258    0.0000 </r>
       <r>   14.8258    0.0000 </r>
       <r>   15.2619    0.0000 </r>
       <r>   15.2619    0.0000 </r>
       <r>   15.6461    0.0000 </r>
       <r>   15.6461    0.0000 </r>
       <r>   16.8924    0.0000 </r>
       <r>   16.8924    0.0000 </r>
       <r>   17.0053    0.0000 </r>
       <r>   17.0053    0.0000 </r>
       <r>   17.6656    0.0000 </r>
       <r>   17.6657    0.0000 </r>
       <r>   18.1101    0.0000 </r>
       <r>   18.1101    0.0000 </r>
       <r>   18.4077    0.0000 </r>
       <r>   18.4077    0.0000 </r>
       <r>   18.8827    0.0000 </r>
       <r>   18.8832    0.0000 </r>
       <r>   19.1101    0.0000 </r>
       <r>   19.1134    0.0000 </r>
       <r>   19.5010    0.0000 </r>
       <r>   19.5237    0.0000 </r>
      </set>
      <set comment="kpoint 8">
       <r>   -7.4027    1.0000 </r>
       <r>   -7.4027    1.0000 </r>
       <r>   -7.1433    1.0000 </r>
       <r>   -7.1433    1.0000 </r>
       <r>   -5.2746    1.0000 </r>
       <r>   -5.2746    1.0000 </r>
       <r>   -4.0808    1.0000 </r>
       <r>   -4.0808    1.0000 </r>
       <r>   -2.4910    1.0000 </r>
       <r>   -2.4910    1.0000 </r>
       <r>    2.4422    1.0000 </r>
       <r>    2.4422    1.0000 </r>
       <r>    2.4946    1.0000 </r>
       <r>    2.4946    1.0000 </r>
       <r>    3.1014    1.0000 </r>
       <r>    3.1014    1.0000 </r>
       <r>    3.5610    1.0000 </r>
       <r>    3.5610    1.0000 </r>
       <r>    3.7940    1.0000 </r>
       <r>    3.7940    1.0000 </r>
       <r>    3.9659    1.0000 </r>
       <r>    3.9659    1.0000 </r>
       <r>    4.5675    1.0000 </r>
       <r>    4.5675    1.0000 </r>
       <r>    4.7912    1.0000 </r>
       <r>    4.7913    1.0000 </r>
       <r>    5.2949    1.0000 </r>
       <r>    5.2949    1.0000 </r>
       <r>    5.5840    0.0000 </r>
       <r>    5.5840    0.0000 </r>
       <r>    6.3627    0.0000 </r>
       <r>    6.3627    0.0000 </r>
       <r>    6.7765    0.0000 </r>
       <r>    6.7765    0.0000 </r>
       <r>    7.3518    0.0000 </r>
       <r>    7.3518    0.0000 </r>
       <r>    8.1226    0.0000 </r>
       <r>    8.1226    0.0000 </r>
       <r>    8.3261    0.0000 </r>
       <r>    8.3261    0.0000 </r>
       <r>   10.4215    0.0000 </r>
       <r>   10.4216    0.0000 </r>
       <r>   10.5980    0.0000 </r>
       <r>   10.5980    0.0000 </r>
       <r>   11.0749    0.0000 </r>
       <r>   11.0749    0.0000 </r>
       <r>   11.2836    0.0000 </r>
       <r>   11.2837    0.0000 </r>
       <r>   11.8916    0.0000 </r>
       <r>   11.8916    0.0000 </r>
       <r>   12.6013    0.0000 </r>
       <r>   12.6014    0.0000 </r>
       <r>   12.7363    0.0000 </r>
       <r>   12.7363    0.0000 </r>
       <r>   12.9281    0.0000 </r>
       <r>   12.9281    0.0000 </r>
       <r>   13.1334    0.0000 </r>
       <r>   13.1334    0.0000 </r>
       <r>   13.2721    0.0000 </r>
       <r>   13.2721    0.0000 </r>
       <r>   13.5997    0.0000 </r>
       <r>   13.5997    0.0000 </r>
       <r>   13.9231    0.0000 </r>
       <r>   13.9231    0.0000 </r>
       <r>   14.3810    0.0000 </r>
       <r>   14.3810    0.0000 </r>
       <r>   14.8258    0.0000 </r>
       <r>   14.8258    0.0000 </r>
       <r>   15.2619    0.0000 </r>
       <r>   15.2619    0.0000 </r>
       <r>   15.6461    0.0000 </r>
       <r>   15.6461    0.0000 </r>
       <r>   16.8924    0.0000 </r>
       <r>   16.8924    0.0000 </r>
       <r>   17.0053    0.0000 </r>
       <r>   17.0053    0.0000 </r>
       <r>   17.6656    0.0000 </r>
       <r>   17.6657    0.0000 </r>
       <r>   18.1101    0.0000 </r>
       <r>   18.1101    0.0000 </r>
       <r>   18.4077    0.0000 </r>
       <r>   18.4079    0.0000 </r>
       <r>   18.8828    0.0000 </r>
       <r>   18.8839    0.0000 </r>
       <r>   19.1106    0.0000 </r>
       <r>   19.1135    0.0000 </r>
       <r>   19.5018    0.0000 </r>
       <r>   19.5341    0.0000 </r>
      </set>
      <set comment="kpoint 9">
       <r>   -7.3994    1.0000 </r>
       <r>   -7.3994    1.0000 </r>
       <r>   -7.1402    1.0000 </r>
       <r>   -7.1402    1.0000 </r>
       <r>   -5.2730    1.0000 </r>
       <r>   -5.2730    1.0000 </r>
       <r>   -4.0815    1.0000 </r>
       <r>   -4.0815    1.0000 </r>
       <r>   -2.4974    1.0000 </r>
       <r>   -2.4974    1.0000 </r>
       <r>    2.4313    1.0000 </r>
       <r>    2.4313    1.0000 </r>
       <r>    2.4925    1.0000 </r>
       <r>    2.4925    1.0000 </r>
       <r>    3.0609    1.0000 </r>
       <r>    3.0609    1.0000 </r>
       <r>    3.5626    1.0000 </r>
       <r>    3.5626    1.0000 </r>
       <r>    3.8345    1.0000 </r>
       <r>    3.8345    1.0000 </r>
       <r>    3.9707    1.0000 </r>
       <r>    3.9707    1.0000 </r>
       <r>    4.5297    1.0000 </r>
       <r>    4.5297    1.0000 </r>
       <r>    4.7831    1.0000 </r>
       <r>    4.7831    1.0000 </r>
       <r>    5.2096    1.0000 </r>
       <r>    5.2096    1.0000 </r>
       <r>    5.6842    0.0000 </r>
       <r>    5.6842    0.0000 </r>
       <r>    6.3613    0.0000 </r>
       <r>    6.3613    0.0000 </r>
       <r>    6.8040    0.0000 </r>
       <r>    6.8040    0.0000 </r>
       <r>    7.3414    0.0000 </r>
       <r>    7.3414    0.0000 </r>
       <r>    8.1293    0.0000 </r>
       <r>    8.1293    0.0000 </r>
       <r>    8.3338    0.0000 </r>
       <r>    8.3338    0.0000 </r>
       <r>   10.4297    0.0000 </r>
       <r>   10.4297    0.0000 </r>
       <r>   10.5776    0.0000 </r>
       <r>   10.5776    0.0000 </r>
       <r>   11.0740    0.0000 </r>
       <r>   11.0740    0.0000 </r>
       <r>   11.3032    0.0000 </r>
       <r>   11.3032    0.0000 </r>
       <r>   11.8445    0.0000 </r>
       <r>   11.8445    0.0000 </r>
       <r>   12.5881    0.0000 </r>
       <r>   12.5881    0.0000 </r>
       <r>   12.7882    0.0000 </r>
       <r>   12.7882    0.0000 </r>
       <r>   12.9263    0.0000 </r>
       <r>   12.9263    0.0000 </r>
       <r>   13.0913    0.0000 </r>
       <r>   13.0913    0.0000 </r>
       <r>   13.3506    0.0000 </r>
       <r>   13.3506    0.0000 </r>
       <r>   13.6095    0.0000 </r>
       <r>   13.6096    0.0000 </r>
       <r>   13.9603    0.0000 </r>
       <r>   13.9604    0.0000 </r>
       <r>   14.3724    0.0000 </r>
       <r>   14.3725    0.0000 </r>
       <r>   14.7401    0.0000 </r>
       <r>   14.7401    0.0000 </r>
       <r>   15.3728    0.0000 </r>
       <r>   15.3728    0.0000 </r>
       <r>   15.6500    0.0000 </r>
       <r>   15.6500    0.0000 </r>
       <r>   16.9056    0.0000 </r>
       <r>   16.9057    0.0000 </r>
       <r>   17.0137    0.0000 </r>
       <r>   17.0138    0.0000 </r>
       <r>   17.6563    0.0000 </r>
       <r>   17.6564    0.0000 </r>
       <r>   18.0100    0.0000 </r>
       <r>   18.0100    0.0000 </r>
       <r>   18.4844    0.0000 </r>
       <r>   18.4845    0.0000 </r>
       <r>   18.8516    0.0000 </r>
       <r>   18.8519    0.0000 </r>
       <r>   19.1377    0.0000 </r>
       <r>   19.1394    0.0000 </r>
       <r>   19.3982    0.0000 </r>
       <r>   19.4087    0.0000 </r>
      </set>
      <set comment="kpoint 10">
       <r>   -7.3589    1.0000 </r>
       <r>   -7.3589    1.0000 </r>
       <r>   -7.0972    1.0000 </r>
       <r>   -7.0972    1.0000 </r>
       <r>   -5.2588    1.0000 </r>
       <r>   -5.2587    1.0000 </r>
       <r>   -4.0818    1.0000 </r>
       <r>   -4.0818    1.0000 </r>
       <r>   -2.5849    1.0000 </r>
       <r>   -2.5849    1.0000 </r>
       <r>    2.2246    1.0000 </r>
       <r>    2.2247    1.0000 </r>
       <r>    2.4998    1.0000 </r>
       <r>    2.4998    1.0000 </r>
       <r>    2.9568    1.0000 </r>
       <r>    2.9568    1.0000 </r>
       <r>    3.5184    1.0000 </r>
       <r>    3.5184    1.0000 </r>
       <r>    3.6579    1.0000 </r>
       <r>    3.6579    1.0000 </r>
       <r>    3.9228    1.0000 </r>
       <r>    3.9228    1.0000 </r>
       <r>    4.5420    1.0000 </r>
       <r>    4.5420    1.0000 </r>
       <r>    4.6629    1.0000 </r>
       <r>    4.6629    1.0000 </r>
       <r>    5.3330    1.0000 </r>
       <r>    5.3330    1.0000 </r>
       <r>    5.5780    0.0000 </r>
       <r>    5.5780    0.0000 </r>
       <r>    6.5718    0.0000 </r>
       <r>    6.5718    0.0000 </r>
       <r>    6.8177    0.0000 </r>
       <r>    6.8177    0.0000 </r>
       <r>    7.4959    0.0000 </r>
       <r>    7.4959    0.0000 </r>
       <r>    8.2305    0.0000 </r>
       <r>    8.2305    0.0000 </r>
       <r>    8.4470    0.0000 </r>
       <r>    8.4470    0.0000 </r>
       <r>   10.3245    0.0000 </r>
       <r>   10.3245    0.0000 </r>
       <r>   10.6257    0.0000 </r>
       <r>   10.6257    0.0000 </r>
       <r>   10.9624    0.0000 </r>
       <r>   10.9624    0.0000 </r>
       <r>   11.3800    0.0000 </r>
       <r>   11.3800    0.0000 </r>
       <r>   11.8538    0.0000 </r>
       <r>   11.8539    0.0000 </r>
       <r>   12.5608    0.0000 </r>
       <r>   12.5609    0.0000 </r>
       <r>   12.6913    0.0000 </r>
       <r>   12.6913    0.0000 </r>
       <r>   12.9489    0.0000 </r>
       <r>   12.9489    0.0000 </r>
       <r>   13.1228    0.0000 </r>
       <r>   13.1229    0.0000 </r>
       <r>   13.3317    0.0000 </r>
       <r>   13.3317    0.0000 </r>
       <r>   13.8971    0.0000 </r>
       <r>   13.8972    0.0000 </r>
       <r>   14.0992    0.0000 </r>
       <r>   14.0992    0.0000 </r>
       <r>   14.6444    0.0000 </r>
       <r>   14.6444    0.0000 </r>
       <r>   15.0587    0.0000 </r>
       <r>   15.0587    0.0000 </r>
       <r>   15.4504    0.0000 </r>
       <r>   15.4505    0.0000 </r>
       <r>   16.0110    0.0000 </r>
       <r>   16.0110    0.0000 </r>
       <r>   16.7521    0.0000 </r>
       <r>   16.7521    0.0000 </r>
       <r>   17.0264    0.0000 </r>
       <r>   17.0265    0.0000 </r>
       <r>   17.8092    0.0000 </r>
       <r>   17.8092    0.0000 </r>
       <r>   18.1201    0.0000 </r>
       <r>   18.1201    0.0000 </r>
       <r>   18.2827    0.0000 </r>
       <r>   18.2828    0.0000 </r>
       <r>   18.7318    0.0000 </r>
       <r>   18.7325    0.0000 </r>
       <r>   18.9268    0.0000 </r>
       <r>   18.9278    0.0000 </r>
       <r>   19.6753    0.0000 </r>
       <r>   19.7076    0.0000 </r>
      </set>
      <set comment="kpoint 11">
       <r>   -7.3824    1.0000 </r>
       <r>   -7.3824    1.0000 </r>
       <r>   -7.1219    1.0000 </r>
       <r>   -7.1218    1.0000 </r>
       <r>   -5.2672    1.0000 </r>
       <r>   -5.2672    1.0000 </r>
       <r>   -4.0811    1.0000 </r>
       <r>   -4.0811    1.0000 </r>
       <r>   -2.5350    1.0000 </r>
       <r>   -2.5350    1.0000 </r>
       <r>    2.3390    1.0000 </r>
       <r>    2.3390    1.0000 </r>
       <r>    2.4932    1.0000 </r>
       <r>    2.4932    1.0000 </r>
       <r>    3.0369    1.0000 </r>
       <r>    3.0369    1.0000 </r>
       <r>    3.5450    1.0000 </r>
       <r>    3.5450    1.0000 </r>
       <r>    3.7126    1.0000 </r>
       <r>    3.7126    1.0000 </r>
       <r>    3.9453    1.0000 </r>
       <r>    3.9453    1.0000 </r>
       <r>    4.5724    1.0000 </r>
       <r>    4.5724    1.0000 </r>
       <r>    4.7252    1.0000 </r>
       <r>    4.7252    1.0000 </r>
       <r>    5.3461    1.0000 </r>
       <r>    5.3461    1.0000 </r>
       <r>    5.5445    0.0000 </r>
       <r>    5.5445    0.0000 </r>
       <r>    6.4695    0.0000 </r>
       <r>    6.4695    0.0000 </r>
       <r>    6.7853    0.0000 </r>
       <r>    6.7853    0.0000 </r>
       <r>    7.4235    0.0000 </r>
       <r>    7.4235    0.0000 </r>
       <r>    8.1764    0.0000 </r>
       <r>    8.1764    0.0000 </r>
       <r>    8.3892    0.0000 </r>
       <r>    8.3892    0.0000 </r>
       <r>   10.3792    0.0000 </r>
       <r>   10.3792    0.0000 </r>
       <r>   10.6091    0.0000 </r>
       <r>   10.6091    0.0000 </r>
       <r>   11.0161    0.0000 </r>
       <r>   11.0161    0.0000 </r>
       <r>   11.3262    0.0000 </r>
       <r>   11.3262    0.0000 </r>
       <r>   11.8814    0.0000 </r>
       <r>   11.8815    0.0000 </r>
       <r>   12.5774    0.0000 </r>
       <r>   12.5774    0.0000 </r>
       <r>   12.7019    0.0000 </r>
       <r>   12.7019    0.0000 </r>
       <r>   12.9346    0.0000 </r>
       <r>   12.9346    0.0000 </r>
       <r>   13.1497    0.0000 </r>
       <r>   13.1497    0.0000 </r>
       <r>   13.2622    0.0000 </r>
       <r>   13.2622    0.0000 </r>
       <r>   13.7418    0.0000 </r>
       <r>   13.7418    0.0000 </r>
       <r>   14.0025    0.0000 </r>
       <r>   14.0025    0.0000 </r>
       <r>   14.5156    0.0000 </r>
       <r>   14.5156    0.0000 </r>
       <r>   14.9714    0.0000 </r>
       <r>   14.9714    0.0000 </r>
       <r>   15.3317    0.0000 </r>
       <r>   15.3317    0.0000 </r>
       <r>   15.8286    0.0000 </r>
       <r>   15.8286    0.0000 </r>
       <r>   16.8278    0.0000 </r>
       <r>   16.8278    0.0000 </r>
       <r>   16.9938    0.0000 </r>
       <r>   16.9938    0.0000 </r>
       <r>   17.7385    0.0000 </r>
       <r>   17.7385    0.0000 </r>
       <r>   18.1422    0.0000 </r>
       <r>   18.1422    0.0000 </r>
       <r>   18.3136    0.0000 </r>
       <r>   18.3136    0.0000 </r>
       <r>   18.8180    0.0000 </r>
       <r>   18.8182    0.0000 </r>
       <r>   19.0100    0.0000 </r>
       <r>   19.0110    0.0000 </r>
       <r>   19.6061    0.0000 </r>
       <r>   19.6415    0.0000 </r>
      </set>
      <set comment="kpoint 12">
       <r>   -7.4232    1.0000 </r>
       <r>   -7.4232    1.0000 </r>
       <r>   -7.1647    1.0000 </r>
       <r>   -7.1647    1.0000 </r>
       <r>   -5.2826    1.0000 </r>
       <r>   -5.2826    1.0000 </r>
       <r>   -4.0803    1.0000 </r>
       <r>   -4.0803    1.0000 </r>
       <r>   -2.4467    1.0000 </r>
       <r>   -2.4467    1.0000 </r>
       <r>    2.4701    1.0000 </r>
       <r>    2.4701    1.0000 </r>
       <r>    2.5799    1.0000 </r>
       <r>    2.5799    1.0000 </r>
       <r>    3.1955    1.0000 </r>
       <r>    3.1955    1.0000 </r>
       <r>    3.5703    1.0000 </r>
       <r>    3.5703    1.0000 </r>
       <r>    3.8491    1.0000 </r>
       <r>    3.8491    1.0000 </r>
       <r>    3.9820    1.0000 </r>
       <r>    3.9820    1.0000 </r>
       <r>    4.5757    1.0000 </r>
       <r>    4.5757    1.0000 </r>
       <r>    4.8522    1.0000 </r>
       <r>    4.8522    1.0000 </r>
       <r>    5.3292    1.0000 </r>
       <r>    5.3292    1.0000 </r>
       <r>    5.5355    0.0000 </r>
       <r>    5.5355    0.0000 </r>
       <r>    6.2590    0.0000 </r>
       <r>    6.2590    0.0000 </r>
       <r>    6.7599    0.0000 </r>
       <r>    6.7599    0.0000 </r>
       <r>    7.2925    0.0000 </r>
       <r>    7.2925    0.0000 </r>
       <r>    8.0633    0.0000 </r>
       <r>    8.0633    0.0000 </r>
       <r>    8.2504    0.0000 </r>
       <r>    8.2504    0.0000 </r>
       <r>   10.4325    0.0000 </r>
       <r>   10.4325    0.0000 </r>
       <r>   10.6268    0.0000 </r>
       <r>   10.6268    0.0000 </r>
       <r>   11.1345    0.0000 </r>
       <r>   11.1346    0.0000 </r>
       <r>   11.2318    0.0000 </r>
       <r>   11.2318    0.0000 </r>
       <r>   11.9370    0.0000 </r>
       <r>   11.9371    0.0000 </r>
       <r>   12.6477    0.0000 </r>
       <r>   12.6478    0.0000 </r>
       <r>   12.7377    0.0000 </r>
       <r>   12.7377    0.0000 </r>
       <r>   12.9213    0.0000 </r>
       <r>   12.9213    0.0000 </r>
       <r>   13.1444    0.0000 </r>
       <r>   13.1444    0.0000 </r>
       <r>   13.2583    0.0000 </r>
       <r>   13.2583    0.0000 </r>
       <r>   13.4687    0.0000 </r>
       <r>   13.4687    0.0000 </r>
       <r>   13.8204    0.0000 </r>
       <r>   13.8204    0.0000 </r>
       <r>   14.2483    0.0000 </r>
       <r>   14.2483    0.0000 </r>
       <r>   14.7600    0.0000 </r>
       <r>   14.7600    0.0000 </r>
       <r>   15.0857    0.0000 </r>
       <r>   15.0857    0.0000 </r>
       <r>   15.4618    0.0000 </r>
       <r>   15.4619    0.0000 </r>
       <r>   16.8829    0.0000 </r>
       <r>   16.8829    0.0000 </r>
       <r>   17.0903    0.0000 </r>
       <r>   17.0903    0.0000 </r>
       <r>   17.6093    0.0000 </r>
       <r>   17.6093    0.0000 </r>
       <r>   18.2017    0.0000 </r>
       <r>   18.2018    0.0000 </r>
       <r>   18.3982    0.0000 </r>
       <r>   18.3982    0.0000 </r>
       <r>   18.9692    0.0000 </r>
       <r>   18.9696    0.0000 </r>
       <r>   19.1899    0.0000 </r>
       <r>   19.1928    0.0000 </r>
       <r>   19.4971    0.0000 </r>
       <r>   19.5823    0.0000 </r>
      </set>
      <set comment="kpoint 13">
       <r>   -7.4406    1.0000 </r>
       <r>   -7.4406    1.0000 </r>
       <r>   -7.1829    1.0000 </r>
       <r>   -7.1829    1.0000 </r>
       <r>   -5.2894    1.0000 </r>
       <r>   -5.2894    1.0000 </r>
       <r>   -4.0803    1.0000 </r>
       <r>   -4.0802    1.0000 </r>
       <r>   -2.4087    1.0000 </r>
       <r>   -2.4087    1.0000 </r>
       <r>    2.4655    1.0000 </r>
       <r>    2.4656    1.0000 </r>
       <r>    2.6931    1.0000 </r>
       <r>    2.6931    1.0000 </r>
       <r>    3.2719    1.0000 </r>
       <r>    3.2719    1.0000 </r>
       <r>    3.5791    1.0000 </r>
       <r>    3.5791    1.0000 </r>
       <r>    3.9192    1.0000 </r>
       <r>    3.9192    1.0000 </r>
       <r>    3.9981    1.0000 </r>
       <r>    3.9981    1.0000 </r>
       <r>    4.5647    1.0000 </r>
       <r>    4.5647    1.0000 </r>
       <r>    4.8835    1.0000 </r>
       <r>    4.8836    1.0000 </r>
       <r>    5.3200    1.0000 </r>
       <r>    5.3201    1.0000 </r>
       <r>    5.5496    0.0000 </r>
       <r>    5.5496    0.0000 </r>
       <r>    6.1633    0.0000 </r>
       <r>    6.1633    0.0000 </r>
       <r>    6.7618    0.0000 </r>
       <r>    6.7618    0.0000 </r>
       <r>    7.2351    0.0000 </r>
       <r>    7.2352    0.0000 </r>
       <r>    8.0068    0.0000 </r>
       <r>    8.0068    0.0000 </r>
       <r>    8.1717    0.0000 </r>
       <r>    8.1717    0.0000 </r>
       <r>   10.4239    0.0000 </r>
       <r>   10.4239    0.0000 </r>
       <r>   10.6717    0.0000 </r>
       <r>   10.6717    0.0000 </r>
       <r>   11.1871    0.0000 </r>
       <r>   11.1871    0.0000 </r>
       <r>   11.1942    0.0000 </r>
       <r>   11.1942    0.0000 </r>
       <r>   11.9668    0.0000 </r>
       <r>   11.9668    0.0000 </r>
       <r>   12.6990    0.0000 </r>
       <r>   12.6991    0.0000 </r>
       <r>   12.7638    0.0000 </r>
       <r>   12.7638    0.0000 </r>
       <r>   12.8970    0.0000 </r>
       <r>   12.8971    0.0000 </r>
       <r>   13.1442    0.0000 </r>
       <r>   13.1443    0.0000 </r>
       <r>   13.3007    0.0000 </r>
       <r>   13.3007    0.0000 </r>
       <r>   13.3669    0.0000 </r>
       <r>   13.3669    0.0000 </r>
       <r>   13.7369    0.0000 </r>
       <r>   13.7369    0.0000 </r>
       <r>   14.1127    0.0000 </r>
       <r>   14.1127    0.0000 </r>
       <r>   14.6457    0.0000 </r>
       <r>   14.6457    0.0000 </r>
       <r>   14.9588    0.0000 </r>
       <r>   14.9588    0.0000 </r>
       <r>   15.2802    0.0000 </r>
       <r>   15.2802    0.0000 </r>
       <r>   16.8598    0.0000 </r>
       <r>   16.8599    0.0000 </r>
       <r>   17.1898    0.0000 </r>
       <r>   17.1899    0.0000 </r>
       <r>   17.5806    0.0000 </r>
       <r>   17.5806    0.0000 </r>
       <r>   18.2371    0.0000 </r>
       <r>   18.2372    0.0000 </r>
       <r>   18.4454    0.0000 </r>
       <r>   18.4455    0.0000 </r>
       <r>   19.0200    0.0000 </r>
       <r>   19.0212    0.0000 </r>
       <r>   19.2662    0.0000 </r>
       <r>   19.2682    0.0000 </r>
       <r>   19.4719    0.0000 </r>
       <r>   19.5091    0.0000 </r>
      </set>
      <set comment="kpoint 14">
       <r>   -7.4236    1.0000 </r>
       <r>   -7.4235    1.0000 </r>
       <r>   -7.1163    1.0000 </r>
       <r>   -7.1163    1.0000 </r>
       <r>   -5.3148    1.0000 </r>
       <r>   -5.3148    1.0000 </r>
       <r>   -4.0292    1.0000 </r>
       <r>   -4.0292    1.0000 </r>
       <r>   -2.5125    1.0000 </r>
       <r>   -2.5125    1.0000 </r>
       <r>    2.4688    1.0000 </r>
       <r>    2.4688    1.0000 </r>
       <r>    2.5058    1.0000 </r>
       <r>    2.5058    1.0000 </r>
       <r>    3.0595    1.0000 </r>
       <r>    3.0595    1.0000 </r>
       <r>    3.5656    1.0000 </r>
       <r>    3.5656    1.0000 </r>
       <r>    3.8149    1.0000 </r>
       <r>    3.8149    1.0000 </r>
       <r>    3.9840    1.0000 </r>
       <r>    3.9840    1.0000 </r>
       <r>    4.5315    1.0000 </r>
       <r>    4.5315    1.0000 </r>
       <r>    4.8671    1.0000 </r>
       <r>    4.8671    1.0000 </r>
       <r>    5.2135    1.0000 </r>
       <r>    5.2135    1.0000 </r>
       <r>    5.6671    0.0000 </r>
       <r>    5.6672    0.0000 </r>
       <r>    6.2820    0.0000 </r>
       <r>    6.2820    0.0000 </r>
       <r>    6.7716    0.0000 </r>
       <r>    6.7716    0.0000 </r>
       <r>    7.3623    0.0000 </r>
       <r>    7.3623    0.0000 </r>
       <r>    8.1315    0.0000 </r>
       <r>    8.1316    0.0000 </r>
       <r>    8.3283    0.0000 </r>
       <r>    8.3283    0.0000 </r>
       <r>   10.4577    0.0000 </r>
       <r>   10.4577    0.0000 </r>
       <r>   10.5638    0.0000 </r>
       <r>   10.5638    0.0000 </r>
       <r>   11.0393    0.0000 </r>
       <r>   11.0394    0.0000 </r>
       <r>   11.2702    0.0000 </r>
       <r>   11.2702    0.0000 </r>
       <r>   12.0090    0.0000 </r>
       <r>   12.0090    0.0000 </r>
       <r>   12.5108    0.0000 </r>
       <r>   12.5108    0.0000 </r>
       <r>   12.8507    0.0000 </r>
       <r>   12.8507    0.0000 </r>
       <r>   12.9862    0.0000 </r>
       <r>   12.9862    0.0000 </r>
       <r>   13.0419    0.0000 </r>
       <r>   13.0419    0.0000 </r>
       <r>   13.1653    0.0000 </r>
       <r>   13.1653    0.0000 </r>
       <r>   13.5965    0.0000 </r>
       <r>   13.5966    0.0000 </r>
       <r>   13.7365    0.0000 </r>
       <r>   13.7365    0.0000 </r>
       <r>   14.5840    0.0000 </r>
       <r>   14.5840    0.0000 </r>
       <r>   14.9479    0.0000 </r>
       <r>   14.9479    0.0000 </r>
       <r>   15.3239    0.0000 </r>
       <r>   15.3239    0.0000 </r>
       <r>   15.5837    0.0000 </r>
       <r>   15.5838    0.0000 </r>
       <r>   16.5807    0.0000 </r>
       <r>   16.5808    0.0000 </r>
       <r>   16.8001    0.0000 </r>
       <r>   16.8001    0.0000 </r>
       <r>   17.9770    0.0000 </r>
       <r>   17.9770    0.0000 </r>
       <r>   18.3466    0.0000 </r>
       <r>   18.3466    0.0000 </r>
       <r>   18.4076    0.0000 </r>
       <r>   18.4076    0.0000 </r>
       <r>   18.8724    0.0000 </r>
       <r>   18.8730    0.0000 </r>
       <r>   19.0892    0.0000 </r>
       <r>   19.0951    0.0000 </r>
       <r>   19.4170    0.0000 </r>
       <r>   19.4296    0.0000 </r>
      </set>
      <set comment="kpoint 15">
       <r>   -7.4100    1.0000 </r>
       <r>   -7.4099    1.0000 </r>
       <r>   -7.1309    1.0000 </r>
       <r>   -7.1309    1.0000 </r>
       <r>   -5.2901    1.0000 </r>
       <r>   -5.2901    1.0000 </r>
       <r>   -4.0603    1.0000 </r>
       <r>   -4.0603    1.0000 </r>
       <r>   -2.5024    1.0000 </r>
       <r>   -2.5024    1.0000 </r>
       <r>    2.4515    1.0000 </r>
       <r>    2.4515    1.0000 </r>
       <r>    2.4987    1.0000 </r>
       <r>    2.4987    1.0000 </r>
       <r>    3.0583    1.0000 </r>
       <r>    3.0584    1.0000 </r>
       <r>    3.5645    1.0000 </r>
       <r>    3.5645    1.0000 </r>
       <r>    3.8252    1.0000 </r>
       <r>    3.8252    1.0000 </r>
       <r>    3.9736    1.0000 </r>
       <r>    3.9736    1.0000 </r>
       <r>    4.5335    1.0000 </r>
       <r>    4.5335    1.0000 </r>
       <r>    4.8281    1.0000 </r>
       <r>    4.8281    1.0000 </r>
       <r>    5.2104    1.0000 </r>
       <r>    5.2104    1.0000 </r>
       <r>    5.6742    0.0000 </r>
       <r>    5.6742    0.0000 </r>
       <r>    6.3210    0.0000 </r>
       <r>    6.3210    0.0000 </r>
       <r>    6.7856    0.0000 </r>
       <r>    6.7856    0.0000 </r>
       <r>    7.3514    0.0000 </r>
       <r>    7.3514    0.0000 </r>
       <r>    8.1334    0.0000 </r>
       <r>    8.1334    0.0000 </r>
       <r>    8.3326    0.0000 </r>
       <r>    8.3326    0.0000 </r>
       <r>   10.4571    0.0000 </r>
       <r>   10.4571    0.0000 </r>
       <r>   10.5599    0.0000 </r>
       <r>   10.5599    0.0000 </r>
       <r>   11.0524    0.0000 </r>
       <r>   11.0525    0.0000 </r>
       <r>   11.2841    0.0000 </r>
       <r>   11.2841    0.0000 </r>
       <r>   11.9244    0.0000 </r>
       <r>   11.9244    0.0000 </r>
       <r>   12.5585    0.0000 </r>
       <r>   12.5586    0.0000 </r>
       <r>   12.8732    0.0000 </r>
       <r>   12.8733    0.0000 </r>
       <r>   12.9465    0.0000 </r>
       <r>   12.9466    0.0000 </r>
       <r>   13.0050    0.0000 </r>
       <r>   13.0051    0.0000 </r>
       <r>   13.2513    0.0000 </r>
       <r>   13.2513    0.0000 </r>
       <r>   13.6041    0.0000 </r>
       <r>   13.6041    0.0000 </r>
       <r>   13.8428    0.0000 </r>
       <r>   13.8428    0.0000 </r>
       <r>   14.4776    0.0000 </r>
       <r>   14.4777    0.0000 </r>
       <r>   14.8485    0.0000 </r>
       <r>   14.8485    0.0000 </r>
       <r>   15.4392    0.0000 </r>
       <r>   15.4392    0.0000 </r>
       <r>   15.5303    0.0000 </r>
       <r>   15.5304    0.0000 </r>
       <r>   16.7500    0.0000 </r>
       <r>   16.7500    0.0000 </r>
       <r>   16.8965    0.0000 </r>
       <r>   16.8965    0.0000 </r>
       <r>   17.8155    0.0000 </r>
       <r>   17.8155    0.0000 </r>
       <r>   18.1888    0.0000 </r>
       <r>   18.1888    0.0000 </r>
       <r>   18.5196    0.0000 </r>
       <r>   18.5198    0.0000 </r>
       <r>   18.8025    0.0000 </r>
       <r>   18.8028    0.0000 </r>
       <r>   19.2033    0.0000 </r>
       <r>   19.2382    0.0000 </r>
       <r>   19.3390    0.0000 </r>
       <r>   19.3490    0.0000 </r>
      </set>
      <set comment="kpoint 16">
       <r>   -7.3930    1.0000 </r>
       <r>   -7.3930    1.0000 </r>
       <r>   -7.1431    1.0000 </r>
       <r>   -7.1431    1.0000 </r>
       <r>   -5.2644    1.0000 </r>
       <r>   -5.2644    1.0000 </r>
       <r>   -4.0918    1.0000 </r>
       <r>   -4.0918    1.0000 </r>
       <r>   -2.4975    1.0000 </r>
       <r>   -2.4975    1.0000 </r>
       <r>    2.4098    1.0000 </r>
       <r>    2.4098    1.0000 </r>
       <r>    2.4858    1.0000 </r>
       <r>    2.4858    1.0000 </r>
       <r>    3.0667    1.0000 </r>
       <r>    3.0667    1.0000 </r>
       <r>    3.5588    1.0000 </r>
       <r>    3.5588    1.0000 </r>
       <r>    3.8422    1.0000 </r>
       <r>    3.8422    1.0000 </r>
       <r>    3.9768    1.0000 </r>
       <r>    3.9768    1.0000 </r>
       <r>    4.5196    1.0000 </r>
       <r>    4.5196    1.0000 </r>
       <r>    4.7353    1.0000 </r>
       <r>    4.7353    1.0000 </r>
       <r>    5.2099    1.0000 </r>
       <r>    5.2099    1.0000 </r>
       <r>    5.6970    0.0000 </r>
       <r>    5.6970    0.0000 </r>
       <r>    6.4011    0.0000 </r>
       <r>    6.4011    0.0000 </r>
       <r>    6.8267    0.0000 </r>
       <r>    6.8267    0.0000 </r>
       <r>    7.3332    0.0000 </r>
       <r>    7.3332    0.0000 </r>
       <r>    8.1201    0.0000 </r>
       <r>    8.1201    0.0000 </r>
       <r>    8.3311    0.0000 </r>
       <r>    8.3311    0.0000 </r>
       <r>   10.3873    0.0000 </r>
       <r>   10.3873    0.0000 </r>
       <r>   10.6086    0.0000 </r>
       <r>   10.6087    0.0000 </r>
       <r>   11.0977    0.0000 </r>
       <r>   11.0977    0.0000 </r>
       <r>   11.3270    0.0000 </r>
       <r>   11.3271    0.0000 </r>
       <r>   11.7738    0.0000 </r>
       <r>   11.7738    0.0000 </r>
       <r>   12.5912    0.0000 </r>
       <r>   12.5912    0.0000 </r>
       <r>   12.6900    0.0000 </r>
       <r>   12.6901    0.0000 </r>
       <r>   12.9509    0.0000 </r>
       <r>   12.9509    0.0000 </r>
       <r>   13.1942    0.0000 </r>
       <r>   13.1942    0.0000 </r>
       <r>   13.4560    0.0000 </r>
       <r>   13.4560    0.0000 </r>
       <r>   13.6197    0.0000 </r>
       <r>   13.6197    0.0000 </r>
       <r>   14.0680    0.0000 </r>
       <r>   14.0680    0.0000 </r>
       <r>   14.2852    0.0000 </r>
       <r>   14.2852    0.0000 </r>
       <r>   14.6280    0.0000 </r>
       <r>   14.6280    0.0000 </r>
       <r>   15.2676    0.0000 </r>
       <r>   15.2676    0.0000 </r>
       <r>   15.7967    0.0000 </r>
       <r>   15.7967    0.0000 </r>
       <r>   17.0485    0.0000 </r>
       <r>   17.0485    0.0000 </r>
       <r>   17.1056    0.0000 </r>
       <r>   17.1056    0.0000 </r>
       <r>   17.5360    0.0000 </r>
       <r>   17.5361    0.0000 </r>
       <r>   17.8488    0.0000 </r>
       <r>   17.8488    0.0000 </r>
       <r>   18.3282    0.0000 </r>
       <r>   18.3282    0.0000 </r>
       <r>   18.9239    0.0000 </r>
       <r>   18.9244    0.0000 </r>
       <r>   19.0404    0.0000 </r>
       <r>   19.0416    0.0000 </r>
       <r>   19.5864    0.0000 </r>
[...]
       <r>    13.1236     0.0000     0.0000 </r>
       <r>    13.2254     0.0000     0.0000 </r>
       <r>    13.3271     0.0000     0.0000 </r>
       <r>    13.4288     0.0000     0.0000 </r>
       <r>    13.5306     0.0000     0.0000 </r>
       <r>    13.6323     0.0000     0.0000 </r>
       <r>    13.7340     0.0000     0.0000 </r>
       <r>    13.8357     0.0000     0.0000 </r>
       <r>    13.9375     0.0000     0.0000 </r>
       <r>    14.0392     0.0000     0.0000 </r>
       <r>    14.1409     0.0000     0.0000 </r>
       <r>    14.2426     0.0000     0.0000 </r>
       <r>    14.3444     0.0000     0.0000 </r>
       <r>    14.4461     0.0000     0.0000 </r>
       <r>    14.5478     0.0000     0.0000 </r>
       <r>    14.6495     0.0000     0.0000 </r>
       <r>    14.7513     0.0000     0.0000 </r>
       <r>    14.8530     0.0000     0.0000 </r>
       <r>    14.9547     0.0000     0.0000 </r>
       <r>    15.0564     0.0000     0.0000 </r>
       <r>    15.1582     0.0000     0.0000 </r>
       <r>    15.2599     0.0000     0.0000 </r>
       <r>    15.3616     0.0000     0.0000 </r>
       <r>    15.4634     0.0000     0.0000 </r>
       <r>    15.5651     0.0000     0.0000 </r>
       <r>    15.6668     0.0000     0.0000 </r>
       <r>    15.7685     0.0000     0.0000 </r>
       <r>    15.8703     0.0000     0.0000 </r>
       <r>    15.9720     0.0000     0.0000 </r>
       <r>    16.0737     0.0000     0.0000 </r>
       <r>    16.1754     0.0000     0.0000 </r>
       <r>    16.2772     0.0000     0.0000 </r>
       <r>    16.3789     0.0000     0.0000 </r>
       <r>    16.4806     0.0000     0.0000 </r>
       <r>    16.5823     0.0000     0.0000 </r>
       <r>    16.6841     0.0000     0.0000 </r>
       <r>    16.7858     0.0000     0.0000 </r>
       <r>    16.8875     0.0000     0.0000 </r>
       <r>    16.9892     0.0000     0.0000 </r>
       <r>    17.0910     0.0000     0.0000 </r>
       <r>    17.1927     0.0000     0.0000 </r>
       <r>    17.2944     0.0000     0.0000 </r>
       <r>    17.3962     0.0000     0.0000 </r>
       <r>    17.4979     0.0000     0.0000 </r>
       <r>    17.5996     0.0000     0.0000 </r>
       <r>    17.7013     0.0000     0.0000 </r>
       <r>    17.8031     0.0000     0.0000 </r>
       <r>    17.9048     0.0000     0.0000 </r>
       <r>    18.0065     0.0000     0.0000 </r>
       <r>    18.1082     0.0000     0.0000 </r>
       <r>    18.2100     0.0000     0.0000 </r>
       <r>    18.3117     0.0000     0.0000 </r>
       <r>    18.4134     0.0000     0.0000 </r>
       <r>    18.5151     0.0000     0.0000 </r>
       <r>    18.6169     0.0000     0.0000 </r>
       <r>    18.7186     0.0000     0.0000 </r>
       <r>    18.8203     0.0000     0.0000 </r>
       <r>    18.9220     0.0000     0.0000 </r>
       <r>    19.0238     0.0000     0.0000 </r>
       <r>    19.1255     0.0000     0.0000 </r>
       <r>    19.2272     0.0000     0.0000 </r>
       <r>    19.3290     0.0000     0.0000 </r>
       <r>    19.4307     0.0000     0.0000 </r>
       <r>    19.5324     0.0000     0.0000 </r>
       <r>    19.6341     0.0000     0.0000 </r>
       <r>    19.7359     0.0000     0.0000 </r>
       <r>    19.8376     0.0000     0.0000 </r>
       <r>    19.9393     0.0000     0.0000 </r>
       <r>    20.0410     0.0000     0.0000 </r>
       <r>    20.1428     0.0000     0.0000 </r>
       <r>    20.2445     0.0000     0.0000 </r>
       <r>    20.3462     0.0000     0.0000 </r>
       <r>    20.4479     0.0000     0.0000 </r>
       <r>    20.5497     0.0000     0.0000 </r>
       <r>    20.6514     0.0000     0.0000 </r>
       <r>    20.7531     0.0000     0.0000 </r>
       <r>    20.8548     0.0000     0.0000 </r>
       <r>    20.9566     0.0000     0.0000 </r>
       <r>    21.0583     0.0000     0.0000 </r>
       <r>    21.1600     0.0000     0.0000 </r>
       <r>    21.2618     0.0000     0.0000 </r>
       <r>    21.3635     0.0000     0.0000 </r>
       <r>    21.4652     0.0000     0.0000 </r>
       <r>    21.5669     0.0000     0.0000 </r>
       <r>    21.6687     0.0000     0.0000 </r>
      </set>
      <set comment="spin 4">
       <r>    -8.8492     0.0000     0.0000 </r>
       <r>    -8.7475     0.0000     0.0000 </r>
       <r>    -8.6458     0.0000     0.0000 </r>
       <r>    -8.5441     0.0000     0.0000 </r>
       <r>    -8.4423     0.0000     0.0000 </r>
       <r>    -8.3406     0.0000     0.0000 </r>
       <r>    -8.2389     0.0000     0.0000 </r>
       <r>    -8.1372     0.0000     0.0000 </r>
       <r>    -8.0354     0.0000     0.0000 </r>
       <r>    -7.9337     0.0000     0.0000 </r>
       <r>    -7.8320     0.0000     0.0000 </r>
       <r>    -7.7303     0.0000     0.0000 </r>
       <r>    -7.6285     0.0000     0.0000 </r>
       <r>    -7.5268     0.0000     0.0000 </r>
       <r>    -7.4251     0.0000     0.0000 </r>
       <r>    -7.3233     0.0000     0.0000 </r>
       <r>    -7.2216     0.0000     0.0000 </r>
       <r>    -7.1199     0.0000     0.0000 </r>
       <r>    -7.0182     0.0000     0.0000 </r>
       <r>    -6.9164     0.0000     0.0000 </r>
       <r>    -6.8147     0.0000     0.0000 </r>
       <r>    -6.7130     0.0000     0.0000 </r>
       <r>    -6.6113     0.0000     0.0000 </r>
       <r>    -6.5095     0.0000     0.0000 </r>
       <r>    -6.4078     0.0000     0.0000 </r>
       <r>    -6.3061     0.0000     0.0000 </r>
       <r>    -6.2044     0.0000     0.0000 </r>
       <r>    -6.1026     0.0000     0.0000 </r>
       <r>    -6.0009     0.0000     0.0000 </r>
       <r>    -5.8992     0.0000     0.0000 </r>
       <r>    -5.7975     0.0000     0.0000 </r>
       <r>    -5.6957     0.0000     0.0000 </r>
       <r>    -5.5940     0.0000     0.0000 </r>
       <r>    -5.4923     0.0000     0.0000 </r>
       <r>    -5.3905     0.0000     0.0000 </r>
       <r>    -5.2888     0.0000     0.0000 </r>
       <r>    -5.1871     0.0000     0.0000 </r>
       <r>    -5.0854     0.0000     0.0000 </r>
       <r>    -4.9836     0.0000     0.0000 </r>
       <r>    -4.8819     0.0000     0.0000 </r>
       <r>    -4.7802     0.0000     0.0000 </r>
       <r>    -4.6785     0.0000     0.0000 </r>
       <r>    -4.5767     0.0000     0.0000 </r>
       <r>    -4.4750     0.0000     0.0000 </r>
       <r>    -4.3733     0.0000     0.0000 </r>
       <r>    -4.2716     0.0000     0.0000 </r>
       <r>    -4.1698     0.0000     0.0000 </r>
       <r>    -4.0681     0.0000     0.0000 </r>
       <r>    -3.9664     0.0000     0.0000 </r>
       <r>    -3.8647     0.0000     0.0000 </r>
       <r>    -3.7629     0.0000     0.0000 </r>
       <r>    -3.6612     0.0000     0.0000 </r>
       <r>    -3.5595     0.0000     0.0000 </r>
       <r>    -3.4577     0.0000     0.0000 </r>
       <r>    -3.3560     0.0000     0.0000 </r>
       <r>    -3.2543     0.0000     0.0000 </r>
       <r>    -3.1526     0.0000     0.0000 </r>
       <r>    -3.0508     0.0000     0.0000 </r>
       <r>    -2.9491     0.0000     0.0000 </r>
       <r>    -2.8474     0.0000     0.0000 </r>
       <r>    -2.7457     0.0000     0.0000 </r>
       <r>    -2.6439     0.0000     0.0000 </r>
       <r>    -2.5422     0.0000     0.0000 </r>
       <r>    -2.4405     0.0000     0.0000 </r>
       <r>    -2.3388     0.0000     0.0000 </r>
       <r>    -2.2370     0.0000     0.0000 </r>
       <r>    -2.1353     0.0000     0.0000 </r>
       <r>    -2.0336     0.0000     0.0000 </r>
       <r>    -1.9319     0.0000     0.0000 </r>
       <r>    -1.8301     0.0000     0.0000 </r>
       <r>    -1.7284     0.0000     0.0000 </r>
       <r>    -1.6267     0.0000     0.0000 </r>
       <r>    -1.5249     0.0000     0.0000 </r>
       <r>    -1.4232     0.0000     0.0000 </r>
       <r>    -1.3215     0.0000     0.0000 </r>
       <r>    -1.2198     0.0000     0.0000 </r>
       <r>    -1.1180     0.0000     0.0000 </r>
       <r>    -1.0163     0.0000     0.0000 </r>
       <r>    -0.9146     0.0000     0.0000 </r>
       <r>    -0.8129     0.0000     0.0000 </r>
       <r>    -0.7111     0.0000     0.0000 </r>
       <r>    -0.6094     0.0000     0.0000 </r>
       <r>    -0.5077     0.0000     0.0000 </r>
       <r>    -0.4060     0.0000     0.0000 </r>
       <r>    -0.3042     0.0000     0.0000 </r>
       <r>    -0.2025     0.0000     0.0000 </r>
       <r>    -0.1008     0.0000     0.0000 </r>
       <r>     0.0009     0.0000     0.0000 </r>
       <r>     0.1027     0.0000     0.0000 </r>
       <r>     0.2044     0.0000     0.0000 </r>
       <r>     0.3061     0.0000     0.0000 </r>
       <r>     0.4079     0.0000     0.0000 </r>
       <r>     0.5096     0.0000     0.0000 </r>
       <r>     0.6113     0.0000     0.0000 </r>
       <r>     0.7130     0.0000     0.0000 </r>
       <r>     0.8148     0.0000     0.0000 </r>
       <r>     0.9165     0.0000     0.0000 </r>
       <r>     1.0182     0.0000     0.0000 </r>
       <r>     1.1199     0.0000     0.0000 </r>
       <r>     1.2217     0.0000     0.0000 </r>
       <r>     1.3234     0.0000     0.0000 </r>
       <r>     1.4251     0.0000     0.0000 </r>
       <r>     1.5268     0.0000     0.0000 </r>
       <r>     1.6286     0.0000     0.0000 </r>
       <r>     1.7303     0.0000     0.0000 </r>
       <r>     1.8320     0.0000     0.0000 </r>
       <r>     1.9337     0.0000     0.0000 </r>
       <r>     2.0355     0.0000     0.0000 </r>
       <r>     2.1372     0.0000     0.0000 </r>
       <r>     2.2389     0.0000     0.0000 </r>
       <r>     2.3407     0.0000     0.0000 </r>
       <r>     2.4424     0.0000     0.0000 </r>
       <r>     2.5441     0.0000     0.0000 </r>
       <r>     2.6458     0.0000     0.0000 </r>
       <r>     2.7476     0.0000     0.0000 </r>
       <r>     2.8493     0.0000     0.0000 </r>
       <r>     2.9510     0.0000     0.0000 </r>
       <r>     3.0527     0.0000     0.0000 </r>
       <r>     3.1545     0.0000     0.0000 </r>
       <r>     3.2562     0.0000     0.0000 </r>
       <r>     3.3579     0.0000     0.0000 </r>
       <r>     3.4596     0.0000     0.0000 </r>
       <r>     3.5614     0.0000     0.0000 </r>
       <r>     3.6631     0.0000     0.0000 </r>
       <r>     3.7648     0.0000     0.0000 </r>
       <r>     3.8665     0.0000     0.0000 </r>
       <r>     3.9683     0.0000     0.0000 </r>
       <r>     4.0700     0.0000     0.0000 </r>
       <r>     4.1717     0.0000     0.0000 </r>
       <r>     4.2735     0.0000     0.0000 </r>
       <r>     4.3752     0.0000     0.0000 </r>
       <r>     4.4769     0.0000     0.0000 </r>
       <r>     4.5786     0.0000     0.0000 </r>
       <r>     4.6804     0.0000     0.0000 </r>
       <r>     4.7821     0.0000     0.0000 </r>
       <r>     4.8838     0.0000     0.0000 </r>
       <r>     4.9855     0.0000     0.0000 </r>
       <r>     5.0873     0.0000     0.0000 </r>
       <r>     5.1890     0.0000     0.0000 </r>
       <r>     5.2907     0.0000     0.0000 </r>
       <r>     5.3924     0.0000     0.0000 </r>
       <r>     5.4942     0.0000     0.0000 </r>
       <r>     5.5959     0.0000     0.0000 </r>
       <r>     5.6976     0.0000     0.0000 </r>
       <r>     5.7993     0.0000     0.0000 </r>
       <r>     5.9011     0.0000     0.0000 </r>
       <r>     6.0028     0.0000     0.0000 </r>
       <r>     6.1045     0.0000     0.0000 </r>
       <r>     6.2063     0.0000     0.0000 </r>
       <r>     6.3080     0.0000     0.0000 </r>
       <r>     6.4097     0.0000     0.0000 </r>
       <r>     6.5114     0.0000     0.0000 </r>
       <r>     6.6132     0.0000     0.0000 </r>
       <r>     6.7149     0.0000     0.0000 </r>
       <r>     6.8166     0.0000     0.0000 </r>
       <r>     6.9183     0.0000     0.0000 </r>
       <r>     7.0201     0.0000     0.0000 </r>
       <r>     7.1218     0.0000     0.0000 </r>
       <r>     7.2235     0.0000     0.0000 </r>
       <r>     7.3252     0.0000     0.0000 </r>
       <r>     7.4270     0.0000     0.0000 </r>
       <r>     7.5287     0.0000     0.0000 </r>
       <r>     7.6304     0.0000     0.0000 </r>
       <r>     7.7321     0.0000     0.0000 </r>
       <r>     7.8339     0.0000     0.0000 </r>
       <r>     7.9356     0.0000     0.0000 </r>
       <r>     8.0373     0.0000     0.0000 </r>
       <r>     8.1391     0.0000     0.0000 </r>
       <r>     8.2408     0.0000     0.0000 </r>
       <r>     8.3425     0.0000     0.0000 </r>
       <r>     8.4442     0.0000     0.0000 </r>
       <r>     8.5460     0.0000     0.0000 </r>
       <r>     8.6477     0.0000     0.0000 </r>
       <r>     8.7494     0.0000     0.0000 </r>
       <r>     8.8511     0.0000     0.0000 </r>
       <r>     8.9529     0.0000     0.0000 </r>
       <r>     9.0546     0.0000     0.0000 </r>
       <r>     9.1563     0.0000     0.0000 </r>
       <r>     9.2580     0.0000     0.0000 </r>
       <r>     9.3598     0.0000     0.0000 </r>
       <r>     9.4615     0.0000     0.0000 </r>
       <r>     9.5632     0.0000     0.0000 </r>
       <r>     9.6650     0.0000     0.0000 </r>
       <r>     9.7667     0.0000     0.0000 </r>
       <r>     9.8684     0.0000     0.0000 </r>
       <r>     9.9701     0.0000     0.0000 </r>
       <r>    10.0719     0.0000     0.0000 </r>
       <r>    10.1736     0.0000     0.0000 </r>
       <r>    10.2753     0.0000     0.0000 </r>
       <r>    10.3770     0.0000     0.0000 </r>
       <r>    10.4788     0.0000     0.0000 </r>
       <r>    10.5805     0.0000     0.0000 </r>
       <r>    10.6822     0.0000     0.0000 </r>
       <r>    10.7839     0.0000     0.0000 </r>
       <r>    10.8857     0.0000     0.0000 </r>
       <r>    10.9874     0.0000     0.0000 </r>
       <r>    11.0891     0.0000     0.0000 </r>
       <r>    11.1908     0.0000     0.0000 </r>
       <r>    11.2926     0.0000     0.0000 </r>
       <r>    11.3943     0.0000     0.0000 </r>
       <r>    11.4960     0.0000     0.0000 </r>
       <r>    11.5978     0.0000     0.0000 </r>
       <r>    11.6995     0.0000     0.0000 </r>
       <r>    11.8012     0.0000     0.0000 </r>
       <r>    11.9029     0.0000     0.0000 </r>
       <r>    12.0047     0.0000     0.0000 </r>
       <r>    12.1064     0.0000     0.0000 </r>
       <r>    12.2081     0.0000     0.0000 </r>
       <r>    12.3098     0.0000     0.0000 </r>
       <r>    12.4116     0.0000     0.0000 </r>
       <r>    12.5133     0.0000     0.0000 </r>
       <r>    12.6150     0.0000     0.0000 </r>
       <r>    12.7167     0.0000     0.0000 </r>
       <r>    12.8185     0.0000     0.0000 </r>
       <r>    12.9202     0.0000     0.0000 </r>
       <r>    13.0219     0.0000     0.0000 </r>
       <r>    13.1236     0.0000     0.0000 </r>
       <r>    13.2254     0.0000     0.0000 </r>
       <r>    13.3271     0.0000     0.0000 </r>
       <r>    13.4288     0.0000     0.0000 </r>
       <r>    13.5306     0.0000     0.0000 </r>
       <r>    13.6323     0.0000     0.0000 </r>
       <r>    13.7340     0.0000     0.0000 </r>
       <r>    13.8357     0.0000     0.0000 </r>
       <r>    13.9375     0.0000     0.0000 </r>
       <r>    14.0392     0.0000     0.0000 </r>
       <r>    14.1409     0.0000     0.0000 </r>
       <r>    14.2426     0.0000     0.0000 </r>
       <r>    14.3444     0.0000     0.0000 </r>
       <r>    14.4461     0.0000     0.0000 </r>
       <r>    14.5478     0.0000     0.0000 </r>
       <r>    14.6495     0.0000     0.0000 </r>
       <r>    14.7513     0.0000     0.0000 </r>
       <r>    14.8530     0.0000     0.0000 </r>
       <r>    14.9547     0.0000     0.0000 </r>
       <r>    15.0564     0.0000     0.0000 </r>
       <r>    15.1582     0.0000     0.0000 </r>
       <r>    15.2599     0.0000     0.0000 </r>
       <r>    15.3616     0.0000     0.0000 </r>
       <r>    15.4634     0.0000     0.0000 </r>
       <r>    15.5651     0.0000     0.0000 </r>
       <r>    15.6668     0.0000     0.0000 </r>
       <r>    15.7685     0.0000     0.0000 </r>
       <r>    15.8703     0.0000     0.0000 </r>
       <r>    15.9720     0.0000     0.0000 </r>
       <r>    16.0737     0.0000     0.0000 </r>
       <r>    16.1754     0.0000     0.0000 </r>
       <r>    16.2772     0.0000     0.0000 </r>
       <r>    16.3789     0.0000     0.0000 </r>
       <r>    16.4806     0.0000     0.0000 </r>
       <r>    16.5823     0.0000     0.0000 </r>
       <r>    16.6841     0.0000     0.0000 </r>
       <r>    16.7858     0.0000     0.0000 </r>
       <r>    16.8875     0.0000     0.0000 </r>
       <r>    16.9892     0.0000     0.0000 </r>
       <r>    17.0910     0.0000     0.0000 </r>
       <r>    17.1927     0.0000     0.0000 </r>
       <r>    17.2944     0.0000     0.0000 </r>
       <r>    17.3962     0.0000     0.0000 </r>
       <r>    17.4979     0.0000     0.0000 </r>
       <r>    17.5996     0.0000     0.0000 </r>
       <r>    17.7013     0.0000     0.0000 </r>
       <r>    17.8031     0.0000     0.0000 </r>
       <r>    17.9048     0.0000     0.0000 </r>
       <r>    18.0065     0.0000     0.0000 </r>
       <r>    18.1082     0.0000     0.0000 </r>
       <r>    18.2100     0.0000     0.0000 </r>
       <r>    18.3117     0.0000     0.0000 </r>
       <r>    18.4134     0.0000     0.0000 </r>
       <r>    18.5151     0.0000     0.0000 </r>
       <r>    18.6169     0.0000     0.0000 </r>
       <r>    18.7186     0.0000     0.0000 </r>
       <r>    18.8203     0.0000     0.0000 </r>
       <r>    18.9220     0.0000     0.0000 </r>
       <r>    19.0238     0.0000     0.0000 </r>
       <r>    19.1255     0.0000     0.0000 </r>
       <r>    19.2272     0.0000     0.0000 </r>
       <r>    19.3290     0.0000     0.0000 </r>
       <r>    19.4307     0.0000     0.0000 </r>
       <r>    19.5324     0.0000     0.0000 </r>
       <r>    19.6341     0.0000     0.0000 </r>
       <r>    19.7359     0.0000     0.0000 </r>
       <r>    19.8376     0.0000     0.0000 </r>
       <r>    19.9393     0.0000     0.0000 </r>
       <r>    20.0410     0.0000     0.0000 </r>
       <r>    20.1428     0.0000     0.0000 </r>
       <r>    20.2445     0.0000     0.0000 </r>
       <r>    20.3462     0.0000     0.0000 </r>
       <r>    20.4479     0.0000     0.0000 </r>
       <r>    20.5497     0.0000     0.0000 </r>
       <r>    20.6514     0.0000     0.0000 </r>
       <r>    20.7531     0.0000     0.0000 </r>
       <r>    20.8548     0.0000     0.0000 </r>
       <r>    20.9566     0.0000     0.0000 </r>
       <r>    21.0583     0.0000     0.0000 </r>
       <r>    21.1600     0.0000     0.0000 </r>
       <r>    21.2618     0.0000     0.0000 </r>
       <r>    21.3635     0.0000     0.0000 </r>
       <r>    21.4652     0.0000     0.0000 </r>
       <r>    21.5669     0.0000     0.0000 </r>
       <r>    21.6687     0.0000     0.0000 </r>
      </set>
     </set>
    </array>
   </total>
  </dos>
 </calculation>
 <structure name="finalpos" >
  <crystal>
   <varray name="basis" >
    <v>      10.22228271      -2.21667734       0.00000000 </v>
    <v>      10.22228271       2.21667734       0.00000000 </v>
    <v>       9.74160157       0.00000000       3.80918902 </v>
   </varray>
   <i name="volume">    172.62865583 </i>
   <varray name="rec_basis" >
    <v>       0.04891275      -0.22556282      -0.12508924 </v>
    <v>       0.04891275       0.22556282      -0.12508924 </v>
    <v>      -0.00000000       0.00000000       0.26252307 </v>
   </varray>
  </crystal>
  <varray name="positions" >
   <v>       0.39979833       0.39979833       0.39979833 </v>
   <v>       0.60020167       0.60020167       0.60020167 </v>
   <v>       0.00000000       0.00000000       0.00000000 </v>
   <v>       0.21048582       0.21048582       0.21048582 </v>
   <v>       0.78951418       0.78951418       0.78951418 </v>
  </varray>
 </structure>
</modeling>
