<?xml version="1.0" encoding="ISO-8859-1"?>
<modeling>
 <generator>
  <i name="program" type="string">vasp </i>
  <i name="version" type="string">5.4.4.18Apr17-6-g9f103f2a35  </i>
  <i name="subversion" type="string">(build Mar 20 2018 18:07:30) complex            parallel </i>
  <i name="platform" type="string">LinuxGNU </i>
  <i name="date" type="string">2020 07 05 </i>
  <i name="time" type="string">10:33:27 </i>
 </generator>
 <incar>
  <i type="string" name="SYSTEM"> Bite</i>
  <i type="int" name="ISTART">     0</i>
  <i type="string" name="PREC">accurate</i>
  <i type="logical" name="ADDGRID"> T  </i>
  <i type="int" name="ICHARG">     2</i>
  <i type="int" name="IBRION">     6</i>
  <i type="int" name="NFREE">     4</i>
  <i name="EDIFF">      0.00000010</i>
  <i name="EDIFFG">     -0.00100000</i>
  <i type="int" name="ISIF">     3</i>
  <i name="ENCUT">    600.00000000</i>
  <i name="POTIM">      0.01000000</i>
  <i type="int" name="ISMEAR">    -5</i>
  <i type="logical" name="LWAVE"> F  </i>
  <i type="logical" name="LCHARG"> F  </i>
  <v type="int" name="KPOINT_BSE">    -1     0     0     0</v>
 </incar>
 <structure name="primitive_cell" >
  <crystal>
   <varray name="basis" >
    <v>       2.21667734      -1.27979926      10.14185277 </v>
    <v>       0.00000000       2.55959852      10.14185277 </v>
    <v>      -2.21667734      -1.27979926      10.14185277 </v>
   </varray>
   <i name="volume">    172.62865576 </i>
   <varray name="rec_basis" >
    <v>       0.22556282      -0.13022876       0.03286710 </v>
    <v>      -0.00000000       0.26045751       0.03286710 </v>
    <v>      -0.22556282      -0.13022876       0.03286710 </v>
   </varray>
  </crystal>
  <varray name="positions" >
   <v>       0.39979833       0.39979833       0.39979833 </v>
   <v>      -0.21048582      -0.21048582      -0.21048582 </v>
   <v>       0.00000000       0.00000000       0.00000000 </v>
   <v>      -0.39979833      -0.39979833      -0.39979833 </v>
   <v>       0.21048582       0.21048582       0.21048582 </v>
  </varray>
 </structure>
 <varray name="primitive_index" >
  <v type="int" >        1 </v>
  <v type="int" >        9 </v>
  <v type="int" >        7 </v>
  <v type="int" >        6 </v>
  <v type="int" >        8 </v>
 </varray>
 <kpoints>
  <generation param="Gamma">
   <v type="int" name="divisions">       9        9        2 </v>
   <v name="usershift">      0.00000000       0.00000000       0.00000000 </v>
   <v name="genvec1">      0.11111111       0.00000000       0.00000000 </v>
   <v name="genvec2">      0.00000000       0.11111111       0.00000000 </v>
   <v name="genvec3">      0.00000000       0.00000000       0.50000000 </v>
   <v name="shift">      0.00000000       0.00000000       0.00000000 </v>
  </generation>
  <varray name="kpointlist" >
   <v>       0.00000000       0.00000000       0.00000000 </v>
   <v>       0.11111111       0.00000000       0.00000000 </v>
   <v>       0.22222222       0.00000000       0.00000000 </v>
   <v>       0.33333333       0.00000000       0.00000000 </v>
   <v>       0.44444444       0.00000000       0.00000000 </v>
   <v>       0.11111111       0.11111111       0.00000000 </v>
   <v>       0.22222222       0.11111111       0.00000000 </v>
   <v>       0.33333333       0.11111111       0.00000000 </v>
   <v>       0.44444444       0.11111111       0.00000000 </v>
   <v>       0.22222222       0.22222222       0.00000000 </v>
   <v>       0.33333333       0.22222222       0.00000000 </v>
   <v>       0.33333333       0.33333333       0.00000000 </v>
   <v>       0.00000000       0.00000000       0.50000000 </v>
   <v>       0.11111111       0.00000000       0.50000000 </v>
   <v>       0.22222222       0.00000000       0.50000000 </v>
   <v>       0.33333333       0.00000000       0.50000000 </v>
   <v>       0.44444444       0.00000000       0.50000000 </v>
   <v>       0.11111111       0.11111111       0.50000000 </v>
   <v>       0.22222222       0.11111111       0.50000000 </v>
   <v>       0.33333333       0.11111111       0.50000000 </v>
   <v>       0.44444444       0.11111111       0.50000000 </v>
   <v>       0.22222222       0.22222222       0.50000000 </v>
   <v>       0.33333333       0.22222222       0.50000000 </v>
   <v>       0.33333333       0.33333333       0.50000000 </v>
  </varray>
  <varray name="weights" >
   <v>       0.00617284 </v>
   <v>       0.03703704 </v>
   <v>       0.03703704 </v>
   <v>       0.03703704 </v>
   <v>       0.03703704 </v>
   <v>       0.03703704 </v>
   <v>       0.07407407 </v>
   <v>       0.07407407 </v>
   <v>       0.03703704 </v>
   <v>       0.03703704 </v>
   <v>       0.07407407 </v>
   <v>       0.01234568 </v>
   <v>       0.00617284 </v>
   <v>       0.03703704 </v>
   <v>       0.03703704 </v>
   <v>       0.03703704 </v>
   <v>       0.03703704 </v>
   <v>       0.03703704 </v>
   <v>       0.07407407 </v>
   <v>       0.07407407 </v>
   <v>       0.03703704 </v>
   <v>       0.03703704 </v>
   <v>       0.07407407 </v>
   <v>       0.01234568 </v>
  </varray>
  <varray name="tetrahedronlist"  type="int" >
   <v type="int" >        8        1        2        2       14 </v>
   <v type="int" >        8        2        2        6       14 </v>
   <v type="int" >        4        2        6       14       18 </v>
   <v type="int" >        4        1        2       13       14 </v>
   <v type="int" >        8        2       13       14       14 </v>
   <v type="int" >        8        2       14       14       18 </v>
   <v type="int" >        8        2        3        6       15 </v>
   <v type="int" >        8        3        6        7       15 </v>
   <v type="int" >        4        6        7       15       19 </v>
   <v type="int" >        4        2        6       14       15 </v>
   <v type="int" >        8        6       14       15       18 </v>
   <v type="int" >        8        6       15       18       19 </v>
   <v type="int" >        8        3        4        7       16 </v>
   <v type="int" >        8        4        7        8       16 </v>
   <v type="int" >        4        7        8       16       20 </v>
   <v type="int" >        4        3        7       15       16 </v>
   <v type="int" >        8        7       15       16       19 </v>
   <v type="int" >        8        7       16       19       20 </v>
   <v type="int" >        8        4        5        8       17 </v>
   <v type="int" >        8        5        8        9       17 </v>
   <v type="int" >        4        8        9       17       21 </v>
   <v type="int" >        4        4        8       16       17 </v>
   <v type="int" >        8        8       16       17       20 </v>
   <v type="int" >        8        8       17       20       21 </v>
   <v type="int" >        8        5        5        9       17 </v>
   <v type="int" >        4        8        9       17       20 </v>
   <v type="int" >        4        5        9       17       17 </v>
   <v type="int" >        4        9       17       17       21 </v>
   <v type="int" >        8        9       17       20       21 </v>
   <v type="int" >        8        4        5        8       16 </v>
   <v type="int" >        4        7        8       16       19 </v>
   <v type="int" >        4        5        8       16       17 </v>
   <v type="int" >        8        8       16       19       20 </v>
   <v type="int" >        8        3        4        7       15 </v>
   <v type="int" >        4        6        7       15       18 </v>
   <v type="int" >        4        4        7       15       16 </v>
   <v type="int" >        8        7       15       18       19 </v>
   <v type="int" >        8        2        3        6       14 </v>
   <v type="int" >        4        2        6       14       14 </v>
   <v type="int" >        4        3        6       14       15 </v>
   <v type="int" >        4        6       14       14       18 </v>
   <v type="int" >        4        1        2        2       13 </v>
   <v type="int" >        4        2        2       13       14 </v>
   <v type="int" >        8        2        3        6       18 </v>
   <v type="int" >        8        3        6        7       18 </v>
   <v type="int" >        4        3        7       18       19 </v>
   <v type="int" >        4        2        3       14       18 </v>
   <v type="int" >        8        3       14       15       18 </v>
   <v type="int" >        8        3       15       18       19 </v>
   <v type="int" >        8        6        7        7       19 </v>
   <v type="int" >        8        7        7       10       19 </v>
   <v type="int" >        4        7       10       19       22 </v>
   <v type="int" >        4        6        7       18       19 </v>
   <v type="int" >        8        7       18       19       19 </v>
   <v type="int" >        8        7       19       19       22 </v>
   <v type="int" >        8        7        8       10       20 </v>
   <v type="int" >        8        8       10       11       20 </v>
   <v type="int" >        4       10       11       20       23 </v>
   <v type="int" >        4        7       10       19       20 </v>
   <v type="int" >        8       10       19       20       22 </v>
   <v type="int" >        8       10       20       22       23 </v>
   <v type="int" >        8        8        9       11       21 </v>
   <v type="int" >        4        9       11       11       21 </v>
   <v type="int" >        4       11       11       21       23 </v>
   <v type="int" >        4        8       11       20       21 </v>
   <v type="int" >        8       11       20       21       23 </v>
   <v type="int" >        8       11       21       23       23 </v>
   <v type="int" >        8        8        9       11       20 </v>
   <v type="int" >        4       10       11       20       22 </v>
   <v type="int" >        4        9       11       20       21 </v>
   <v type="int" >        8       11       20       22       23 </v>
   <v type="int" >        8        7        8       10       19 </v>
   <v type="int" >        4        7       10       19       19 </v>
   <v type="int" >        4        8       10       19       20 </v>
   <v type="int" >        4       10       19       19       22 </v>
   <v type="int" >        4        6        7        7       18 </v>
   <v type="int" >        4        3        7       15       18 </v>
   <v type="int" >        4        7        7       18       19 </v>
   <v type="int" >        4        3        6       14       18 </v>
   <v type="int" >        8        3        4        7       19 </v>
   <v type="int" >        8        4        7        8       19 </v>
   <v type="int" >        4        4        8       19       20 </v>
   <v type="int" >        4        3        4       15       19 </v>
   <v type="int" >        8        4       15       16       19 </v>
   <v type="int" >        8        4       16       19       20 </v>
   <v type="int" >        8        7        8       10       22 </v>
   <v type="int" >        8        8       10       11       22 </v>
   <v type="int" >        4        8       11       22       23 </v>
   <v type="int" >        4        7        8       19       22 </v>
   <v type="int" >        8        8       19       20       22 </v>
   <v type="int" >        8        8       20       22       23 </v>
   <v type="int" >        8       10       11       11       23 </v>
   <v type="int" >       16       11       11       12       23 </v>
   <v type="int" >        8       11       12       23       24 </v>
   <v type="int" >        4       10       11       22       23 </v>
   <v type="int" >        8       11       22       23       23 </v>
   <v type="int" >       16       11       23       23       24 </v>
   <v type="int" >        8       11       12       23       23 </v>
   <v type="int" >        8       12       23       23       24 </v>
   <v type="int" >        4       10       11       11       22 </v>
   <v type="int" >        4        8       11       20       22 </v>
   <v type="int" >        4       11       11       22       23 </v>
   <v type="int" >        4        4        8       16       19 </v>
   <v type="int" >        4        8       10       19       22 </v>
   <v type="int" >        4        4        7       15       19 </v>
   <v type="int" >        8        4        5        8       20 </v>
   <v type="int" >        8        5        8        9       20 </v>
   <v type="int" >        4        5        9       20       21 </v>
   <v type="int" >        4        4        5       16       20 </v>
   <v type="int" >        8        5       16       17       20 </v>
   <v type="int" >        8        5       17       20       21 </v>
   <v type="int" >        8        8        9       11       23 </v>
   <v type="int" >        8        9       11       11       23 </v>
   <v type="int" >        4        9       11       23       23 </v>
   <v type="int" >        4        8        9       20       23 </v>
   <v type="int" >        8        9       20       21       23 </v>
   <v type="int" >        4        9       21       23       23 </v>
   <v type="int" >        8       11       11       12       24 </v>
   <v type="int" >        8       11       11       23       24 </v>
   <v type="int" >        4        9       11       21       23 </v>
   <v type="int" >        4        5        9       17       20 </v>
   <v type="int" >        4        9       11       20       23 </v>
   <v type="int" >        4        5        8       16       20 </v>
   <v type="int" >        4        5        5        9       21 </v>
   <v type="int" >        8        5        8        9       21 </v>
   <v type="int" >        4        5        8       20       21 </v>
   <v type="int" >        4        5        5       17       21 </v>
   <v type="int" >        8        5       17       17       21 </v>
   <v type="int" >        8        8       10       11       23 </v>
   <v type="int" >        4        8       10       22       23 </v>
   <v type="int" >        4        8        9       21       23 </v>
   <v type="int" >        8        8       20       21       23 </v>
   <v type="int" >        4        8       10       20       23 </v>
   <v type="int" >        4       10       11       23       23 </v>
   <v type="int" >        4       10       22       23       23 </v>
   <v type="int" >        4        5        8       17       21 </v>
   <v type="int" >        4        8       11       21       23 </v>
   <v type="int" >        4        5        9       17       21 </v>
   <v type="int" >        8        4        7        8       20 </v>
   <v type="int" >        4        4        7       19       20 </v>
   <v type="int" >        4        4        5       17       20 </v>
   <v type="int" >        8        4       16       17       20 </v>
   <v type="int" >        4        7        7       10       22 </v>
   <v type="int" >        4        7        7       19       22 </v>
   <v type="int" >        4        7        8       20       22 </v>
   <v type="int" >        8        7       19       20       22 </v>
   <v type="int" >        4        4        7       16       20 </v>
   <v type="int" >        4        7       10       20       22 </v>
   <v type="int" >        4        4        8       17       20 </v>
   <v type="int" >        8        3        6        7       19 </v>
   <v type="int" >        4        3        6       18       19 </v>
   <v type="int" >        4        3        4       16       19 </v>
   <v type="int" >        8        3       15       16       19 </v>
   <v type="int" >        4        3        6       15       19 </v>
   <v type="int" >        4        6        7       19       19 </v>
   <v type="int" >        4        6       18       19       19 </v>
   <v type="int" >        4        3        7       16       19 </v>
   <v type="int" >        4        2        2        6       18 </v>
   <v type="int" >        4        2        2       14       18 </v>
   <v type="int" >        4        2        3       15       18 </v>
   <v type="int" >        8        2       14       15       18 </v>
   <v type="int" >        4        2        6       15       18 </v>
   <v type="int" >        4        1        2       14       14 </v>
   <v type="int" >        4        1       13       14       14 </v>
  </varray>
  <i name="volumeweight">      0.00102881 </i>
 </kpoints>
 <parameters>
  <separator name="general" >
   <i type="string" name="SYSTEM">Bite</i>
   <i type="logical" name="LCOMPAT"> F  </i>
  </separator>
  <separator name="electronic" >
   <i type="string" name="PREC">accura</i>
   <i name="ENMAX">    600.00000000</i>
   <i name="ENAUG">    368.79200000</i>
   <i name="EDIFF">      0.00000010</i>
   <i type="int" name="IALGO">    38</i>
   <i type="int" name="IWAVPR">    11</i>
   <i type="int" name="NBANDS">    56</i>
   <i name="NELECT">     84.00000000</i>
   <i type="int" name="TURBO">     0</i>
   <i type="int" name="IRESTART">     0</i>
   <i type="int" name="NREBOOT">     0</i>
   <i type="int" name="NMIN">     0</i>
   <i name="EREF">      0.00000000</i>
   <separator name="electronic smearing" >
    <i type="int" name="ISMEAR">    -5</i>
    <i name="SIGMA">      0.20000000</i>
    <i name="KSPACING">      0.50000000</i>
    <i type="logical" name="KGAMMA"> T  </i>
   </separator>
   <separator name="electronic projectors" >
    <i type="logical" name="LREAL"> F  </i>
    <v name="ROPT">      0.00000000      0.00000000</v>
    <i type="int" name="LMAXPAW">  -100</i>
    <i type="int" name="LMAXMIX">     2</i>
    <i type="logical" name="NLSPLINE"> F  </i>
   </separator>
   <separator name="electronic startup" >
    <i type="int" name="ISTART">     0</i>
    <i type="int" name="ICHARG">     2</i>
    <i type="int" name="INIWAV">     1</i>
   </separator>
   <separator name="electronic spin" >
    <i type="int" name="ISPIN">     1</i>
    <i type="logical" name="LNONCOLLINEAR"> F  </i>
    <v name="MAGMOM">      1.00000000      1.00000000      1.00000000      1.00000000      1.00000000      1.00000000      1.00000000      1.00000000      1.00000000      1.00000000      1.00000000      1.00000000      1.00000000      1.00000000      1.00000000</v>
    <i name="NUPDOWN">     -1.00000000</i>
    <i type="logical" name="LSORBIT"> F  </i>
    <v name="SAXIS">      0.00000000      0.00000000      1.00000000</v>
    <i type="logical" name="LSPIRAL"> F  </i>
    <v name="QSPIRAL">      0.00000000      0.00000000      0.00000000</v>
    <i type="logical" name="LZEROZ"> F  </i>
   </separator>
   <separator name="electronic exchange-correlation" >
    <i type="logical" name="LASPH"> F  </i>
    <i type="logical" name="LMETAGGA"> F  </i>
   </separator>
   <separator name="electronic convergence" >
    <i type="int" name="NELM">    60</i>
    <i type="int" name="NELMDL">    -5</i>
    <i type="int" name="NELMIN">     2</i>
    <i name="ENINI">    600.00000000</i>
    <separator name="electronic convergence detail" >
     <i type="logical" name="LDIAG"> T  </i>
     <i type="logical" name="LSUBROT"> F  </i>
     <i name="WEIMIN">      0.00100000</i>
     <i name="EBREAK">      0.00000000</i>
     <i name="DEPER">      0.30000000</i>
     <i type="int" name="NRMM">     4</i>
     <i name="TIME">      0.40000000</i>
    </separator>
   </separator>
   <separator name="electronic mixer" >
    <i name="AMIX">      0.40000000</i>
    <i name="BMIX">      1.00000000</i>
    <i name="AMIN">      0.10000000</i>
    <i name="AMIX_MAG">      1.60000000</i>
    <i name="BMIX_MAG">      1.00000000</i>
    <separator name="electronic mixer details" >
     <i type="int" name="IMIX">     4</i>
     <i type="logical" name="MIXFIRST"> F  </i>
     <i type="int" name="MAXMIX">   -45</i>
     <i name="WC">    100.00000000</i>
     <i type="int" name="INIMIX">     1</i>
     <i type="int" name="MIXPRE">     1</i>
     <i type="int" name="MREMOVE">     5</i>
    </separator>
   </separator>
   <separator name="electronic dipolcorrection" >
    <i type="logical" name="LDIPOL"> F  </i>
    <i type="logical" name="LMONO"> F  </i>
    <i type="int" name="IDIPOL">     0</i>
    <i name="EPSILON">      1.00000000</i>
    <v name="DIPOL">   -100.00000000   -100.00000000   -100.00000000</v>
    <i name="EFIELD">      0.00000000</i>
   </separator>
  </separator>
  <separator name="grids" >
   <i type="int" name="NGX">    36</i>
   <i type="int" name="NGY">    36</i>
   <i type="int" name="NGZ">   250</i>
   <i type="int" name="NGXF">    72</i>
   <i type="int" name="NGYF">    72</i>
   <i type="int" name="NGZF">   500</i>
   <i type="logical" name="ADDGRID"> T  </i>
  </separator>
  <separator name="ionic" >
   <i type="int" name="NSW">   217</i>
   <i type="int" name="IBRION">     6</i>
   <i type="int" name="MDALGO">     0</i>
   <i type="int" name="ISIF">     3</i>
   <i name="PSTRESS">      0.00000000</i>
   <i name="EDIFFG">     -0.00100000</i>
   <i type="int" name="NFREE">     4</i>
   <i name="POTIM">      0.01000000</i>
   <i name="SMASS">     -3.00000000</i>
   <i name="SCALEE">      1.00000000</i>
  </separator>
  <separator name="ionic md" >
   <i name="TEBEG">      0.00010000</i>
   <i name="TEEND">      0.00010000</i>
   <i type="int" name="NBLOCK">     1</i>
   <i type="int" name="KBLOCK">   217</i>
   <i type="int" name="NPACO">   256</i>
   <i name="APACO">     16.00000000</i>
  </separator>
  <separator name="symmetry" >
   <i type="int" name="ISYM">     2</i>
   <i name="SYMPREC">      0.00001000</i>
  </separator>
  <separator name="dos" >
   <i type="int" name="LORBIT">     0</i>
   <v name="RWIGS">     -1.00000000     -1.00000000</v>
   <i type="int" name="NEDOS">   301</i>
   <i name="EMIN">     10.00000000</i>
   <i name="EMAX">    -10.00000000</i>
   <i name="EFERMI">      0.00000000</i>
  </separator>
  <separator name="writing" >
   <i type="int" name="NWRITE">     2</i>
   <i type="logical" name="LWAVE"> F  </i>
   <i type="logical" name="LDOWNSAMPLE"> F  </i>
   <i type="logical" name="LCHARG"> F  </i>
   <i type="logical" name="LPARD"> F  </i>
   <i type="logical" name="LVTOT"> F  </i>
   <i type="logical" name="LVHAR"> F  </i>
   <i type="logical" name="LELF"> F  </i>
   <i type="logical" name="LOPTICS"> F  </i>
   <v name="STM">      0.00000000      0.00000000      0.00000000      0.00000000      0.00000000      0.00000000      0.00000000</v>
  </separator>
  <separator name="performance" >
   <i type="int" name="NPAR">     8</i>
   <i type="int" name="NSIM">     4</i>
   <i type="int" name="NBLK">    -1</i>
   <i type="logical" name="LPLANE"> T  </i>
   <i type="logical" name="LSCALAPACK"> T  </i>
   <i type="logical" name="LSCAAWARE"> F  </i>
   <i type="logical" name="LSCALU"> F  </i>
   <i type="logical" name="LASYNC"> F  </i>
   <i type="logical" name="LORBITALREAL"> F  </i>
  </separator>
  <separator name="miscellaneous" >
   <i type="int" name="IDIOT">     3</i>
   <i type="int" name="ISPECIAL">     0</i>
   <i type="logical" name="LMUSIC"> F  </i>
   <v name="POMASS">    208.98000000    127.60000000</v>
   <v name="DARWINR">      0.00000000      0.00000000</v>
   <v name="DARWINV">      1.00000000      1.00000000</v>
   <i type="logical" name="LCORR"> T  </i>
  </separator>
  <i type="logical" name="GGA_COMPAT"> T  </i>
  <i type="logical" name="LBERRY"> F  </i>
  <i type="int" name="ICORELEVEL">     0</i>
  <i type="logical" name="LDAU"> F  </i>
  <i type="int" name="I_CONSTRAINED_M">     0</i>
  <separator name="electronic exchange-correlation" >
   <i type="string" name="GGA">--</i>
   <i type="int" name="VOSKOWN">     0</i>
   <i type="logical" name="LHFCALC"> F  </i>
   <i type="string" name="PRECFOCK"></i>
   <i type="logical" name="LSYMGRAD"> F  </i>
   <i type="logical" name="LHFONE"> F  </i>
   <i type="logical" name="LRHFCALC"> F  </i>
   <i type="logical" name="LTHOMAS"> F  </i>
   <i type="logical" name="LMODELHF"> F  </i>
   <i name="ENCUT4O">     -1.00000000</i>
   <i type="int" name="EXXOEP">     0</i>
   <i type="int" name="FOURORBIT">     0</i>
   <i name="AEXX">      0.00000000</i>
   <i name="HFALPHA">      0.00000000</i>
   <i name="MCALPHA">      0.00000000</i>
   <i name="ALDAX">      1.00000000</i>
   <i name="AGGAX">      1.00000000</i>
   <i name="ALDAC">      1.00000000</i>
   <i name="AGGAC">      1.00000000</i>
   <i type="int" name="NKREDX">     1</i>
   <i type="int" name="NKREDY">     1</i>
   <i type="int" name="NKREDZ">     1</i>
   <i type="logical" name="SHIFTRED"> F  </i>
   <i type="logical" name="ODDONLY"> F  </i>
   <i type="logical" name="EVENONLY"> F  </i>
   <i type="int" name="LMAXFOCK">     0</i>
   <i type="int" name="NMAXFOCKAE">     0</i>
   <i type="logical" name="LFOCKAEDFT"> F  </i>
   <i name="HFSCREEN">      0.00000000</i>
   <i name="HFSCREENC">      0.00000000</i>
   <i type="int" name="NBANDSGWLOW">     0</i>
  </separator>
  <separator name="vdW DFT" >
   <i type="logical" name="LUSE_VDW"> F  </i>
   <i name="Zab_VDW">     -0.84910000</i>
   <i name="PARAM1">      0.12340000</i>
   <i name="PARAM2">      1.00000000</i>
   <i name="PARAM3">      0.00000000</i>
  </separator>
  <separator name="model GW" >
   <i type="int" name="MODEL_GW">     0</i>
   <i name="MODEL_EPS0">     20.71543869</i>
   <i name="MODEL_ALPHA">      1.00000000</i>
  </separator>
  <separator name="linear response parameters" >
   <i type="logical" name="LEPSILON"> F  </i>
   <i type="logical" name="LRPA"> F  </i>
   <i type="logical" name="LNABLA"> F  </i>
   <i type="logical" name="LVEL"> F  </i>
   <i type="int" name="KINTER">     0</i>
   <i name="CSHIFT">      0.10000000</i>
   <i name="OMEGAMAX">     -1.00000000</i>
   <i name="DEG_THRESHOLD">      0.00200000</i>
   <i name="RTIME">     -0.10000000</i>
   <i name="WPLASMAI">      0.00000000</i>
   <v name="DFIELD">      0.00000000      0.00000000      0.00000000</v>
   <v name="WPLASMA">      0.00000000      0.00000000      0.00000000      0.00000000      0.00000000      0.00000000      0.00000000      0.00000000      0.00000000</v>
  </separator>
  <separator name="orbital magnetization" >
   <i type="logical" name="NUCIND"> F  </i>
   <v name="MAGPOS">      0.00000000      0.00000000      0.00000000</v>
   <i type="logical" name="LNICSALL"> T  </i>
   <i type="logical" name="ORBITALMAG"> F  </i>
   <i type="logical" name="LMAGBLOCH"> F  </i>
   <i type="logical" name="LCHIMAG"> F  </i>
   <i type="logical" name="LGAUGE"> T  </i>
   <i type="int" name="MAGATOM">     0</i>
   <v name="MAGDIPOL">      0.00000000      0.00000000      0.00000000</v>
   <v name="AVECCONST">      0.00000000      0.00000000      0.00000000</v>
  </separator>
  <separator name="response functions" >
   <i type="logical" name="LADDER"> F  </i>
   <i type="logical" name="LRPAFORCE"> F  </i>
   <i type="logical" name="LFXC"> F  </i>
   <i type="logical" name="LHARTREE"> T  </i>
   <i type="int" name="IBSE">     0</i>
   <v type="int" name="KPOINT">    -1     0     0     0</v>
   <i type="logical" name="LTCTE"> F  </i>
   <i type="logical" name="LTETE"> F  </i>
   <i type="logical" name="LTRIPLET"> F  </i>
   <i type="logical" name="LFXCEPS"> F  </i>
   <i type="logical" name="LFXHEG"> F  </i>
   <i type="int" name="NATURALO">     2</i>
   <i type="logical" name="L2ORDER"> F  </i>
   <i type="logical" name="LMP2LT"> F  </i>
   <i type="logical" name="LUSEW"> F  </i>
   <i name="ENCUTGW">     -2.00000000</i>
   <i name="ENCUTGWSOFT">     -2.00000000</i>
   <i name="ENCUTLF">     -1.00000000</i>
   <i type="int" name="LMAXMP2">    -1</i>
   <i name="SCISSOR">      0.00000000</i>
   <i type="int" name="NOMEGA">     0</i>
   <i type="int" name="NOMEGAR">     0</i>
   <i type="int" name="NBANDSGW">    -1</i>
   <i type="int" name="NBANDSO">    -1</i>
   <i type="int" name="NBANDSV">    -1</i>
   <i type="int" name="NELM">     1</i>
   <i type="int" name="NELMHF">     1</i>
   <i type="int" name="DIM">     3</i>
   <i type="int" name="ANTIRES">     0</i>
   <i name="OMEGAMAX">    -30.00000000</i>
   <i name="OMEGAMIN">    -30.00000000</i>
   <i name="OMEGATL">   -200.00000000</i>
   <i type="int" name="OMEGAGRID">   140</i>
   <i name="CSHIFT">     -0.10000000</i>
   <i type="logical" name="SELFENERGY"> F  </i>
   <i type="logical" name="LSPECTRAL"> F  </i>
   <i type="logical" name="LSPECTRALGW"> F  </i>
   <i type="logical" name="LSINGLES"> F  </i>
   <i type="logical" name="LFERMIGW"> F  </i>
   <i type="logical" name="ODDONLYGW"> F  </i>
   <i type="logical" name="EVENONLYGW"> F  </i>
   <i type="int" name="NKREDLFX">     1</i>
   <i type="int" name="NKREDLFY">     1</i>
   <i type="int" name="NKREDLFZ">     1</i>
   <i type="int" name="MAXMEM">  2800</i>
   <i type="int" name="TELESCOPE">     0</i>
   <i type="int" name="TAUPAR">     1</i>
   <i type="int" name="OMEGAPAR">    -1</i>
   <i name="LAMBDA">      1.00000000</i>
  </separator>
  <separator name="External order field" >
   <i name="OFIELD_KAPPA">      0.00000000</i>
   <v name="OFIELD_K">      0.00000000      0.00000000      0.00000000</v>
   <i name="OFIELD_Q6_NEAR">      0.00000000</i>
   <i name="OFIELD_Q6_FAR">      0.00000000</i>
   <i name="OFIELD_A">      0.00000000</i>
  </separator>
 </parameters>
 <atominfo>
  <atoms>      15 </atoms>
  <types>       2 </types>
  <array name="atoms" >
   <dimension dim="1">ion</dimension>
   <field type="string">element</field>
   <field type="int">atomtype</field>
   <set>
    <rc><c>Bi</c><c>   1</c></rc>
    <rc><c>Bi</c><c>   1</c></rc>
    <rc><c>Bi</c><c>   1</c></rc>
    <rc><c>Bi</c><c>   1</c></rc>
    <rc><c>Bi</c><c>   1</c></rc>
    <rc><c>Bi</c><c>   1</c></rc>
    <rc><c>Te</c><c>   2</c></rc>
    <rc><c>Te</c><c>   2</c></rc>
    <rc><c>Te</c><c>   2</c></rc>
    <rc><c>Te</c><c>   2</c></rc>
    <rc><c>Te</c><c>   2</c></rc>
    <rc><c>Te</c><c>   2</c></rc>
    <rc><c>Te</c><c>   2</c></rc>
    <rc><c>Te</c><c>   2</c></rc>
    <rc><c>Te</c><c>   2</c></rc>
   </set>
  </array>
  <array name="atomtypes" >
   <dimension dim="1">type</dimension>
   <field type="int">atomspertype</field>
   <field type="string">element</field>
   <field>mass</field>
   <field>valence</field>
   <field type="string">pseudopotential</field>
   <set>
    <rc><c>   6</c><c>Bi</c><c>    208.98000000</c><c>      5.00000000</c><c>  PAW_PBE Bi 08Apr2002                  </c></rc>
    <rc><c>   9</c><c>Te</c><c>    127.60000000</c><c>      6.00000000</c><c>  PAW_PBE Te 08Apr2002                  </c></rc>
   </set>
  </array>
 </atominfo>
 <structure name="initialpos" >
  <crystal>
   <varray name="basis" >
    <v>       2.21667734      -3.83939778       0.00000000 </v>
    <v>       2.21667734       3.83939778       0.00000000 </v>
    <v>       0.00000000       0.00000000      30.42555831 </v>
   </varray>
   <i name="volume">    517.88596730 </i>
   <varray name="rec_basis" >
    <v>       0.22556282      -0.13022876       0.00000000 </v>
    <v>       0.22556282       0.13022876      -0.00000000 </v>
    <v>      -0.00000000       0.00000000       0.03286710 </v>
   </varray>
  </crystal>
  <varray name="positions" >
   <v>       0.33333333       0.66666667       0.06646499 </v>
   <v>       0.33333333       0.66666667       0.26686834 </v>
   <v>       0.00000000       0.00000000       0.39979833 </v>
   <v>       0.00000000       0.00000000       0.60020167 </v>
   <v>       0.66666667       0.33333333       0.73313166 </v>
   <v>       0.66666667       0.33333333       0.93353501 </v>
   <v>       0.00000000       0.00000000       0.00000000 </v>
   <v>       0.00000000       0.00000000       0.21048582 </v>
   <v>       0.66666667       0.33333333       0.12284751 </v>
   <v>       0.66666667       0.33333333       0.33333333 </v>
   <v>       0.66666667       0.33333333       0.54381916 </v>
   <v>       0.33333333       0.66666667       0.45618084 </v>
   <v>       0.33333333       0.66666667       0.66666667 </v>
   <v>       0.33333333       0.66666667       0.87715249 </v>
   <v>       0.00000000       0.00000000       0.78951418 </v>
  </varray>
 </structure>
 <calculation>
  <scstep>
   <time name="dav">  253.12  325.61</time>
   <time name="total">  260.00  334.72</time>
   <energy>
    <i name="alphaZ">     17.99495032 </i>
    <i name="ewald">  -2950.75573799 </i>
    <i name="hartreedc">   -171.37985056 </i>
    <i name="XCdc">   -912.78131099 </i>
    <i name="pawpsdc">   3220.25459699 </i>
    <i name="pawaedc">  -2172.31475060 </i>
    <i name="eentropy">      0.00000000 </i>
    <i name="bandstr">    485.78805575 </i>
    <i name="atom">   2914.32447682 </i>
    <i name="e_fr_energy">    431.13042974 </i>
    <i name="e_wo_entrp">    431.13042974 </i>
    <i name="e_0_energy">    431.13042974 </i>
   </energy>
  </scstep>
  <scstep>
   <time name="dav">  156.31  194.64</time>
   <time name="total">  156.33  194.66</time>
   <energy>
    <i name="e_fr_energy">     -9.74949105 </i>
    <i name="e_wo_entrp">     -9.74949105 </i>
    <i name="e_0_energy">     -9.74949105 </i>
   </energy>
  </scstep>
  <scstep>
   <time name="dav">   22.18   22.86</time>
   <time name="total">   22.19   22.86</time>
   <energy>
    <i name="e_fr_energy">    -54.09903649 </i>
    <i name="e_wo_entrp">    -54.09903649 </i>
    <i name="e_0_energy">    -54.09903649 </i>
   </energy>
  </scstep>
  <scstep>
   <time name="dav">   24.01   24.41</time>
   <time name="total">   24.01   24.41</time>
   <energy>
    <i name="e_fr_energy">    -55.86167231 </i>
    <i name="e_wo_entrp">    -55.86167231 </i>
    <i name="e_0_energy">    -55.86167231 </i>
   </energy>
  </scstep>
  <scstep>
   <time name="dav">   23.55   24.24</time>
   <time name="total">   26.29   26.98</time>
   <energy>
    <i name="e_fr_energy">    -55.90415755 </i>
    <i name="e_wo_entrp">    -55.90415755 </i>
    <i name="e_0_energy">    -55.90415755 </i>
   </energy>
  </scstep>
  <scstep>
   <time name="dav">   21.50   21.96</time>
   <time name="total">   25.70   26.16</time>
   <energy>
    <i name="e_fr_energy">    -55.01782575 </i>
    <i name="e_wo_entrp">    -55.01782575 </i>
    <i name="e_0_energy">    -55.01782575 </i>
   </energy>
  </scstep>
  <scstep>
   <time name="dav">   21.32   21.33</time>
   <time name="total">   25.53   25.54</time>
   <energy>
    <i name="e_fr_energy">    -55.06086053 </i>
    <i name="e_wo_entrp">    -55.06086053 </i>
    <i name="e_0_energy">    -55.06086053 </i>
   </energy>
  </scstep>
  <scstep>
   <time name="dav">   21.64   21.66</time>
   <time name="total">   25.54   26.28</time>
   <energy>
    <i name="e_fr_energy">    -55.05497764 </i>
    <i name="e_wo_entrp">    -55.05497764 </i>
    <i name="e_0_energy">    -55.05497764 </i>
   </energy>
  </scstep>
  <scstep>
   <time name="dav">   22.52   23.28</time>
   <time name="total">   26.74   27.51</time>
   <energy>
    <i name="e_fr_energy">    -55.04905084 </i>
    <i name="e_wo_entrp">    -55.04905084 </i>
    <i name="e_0_energy">    -55.04905084 </i>
   </energy>
  </scstep>
  <scstep>
   <time name="dav">   23.33   23.87</time>
   <time name="total">   27.54   28.09</time>
   <energy>
    <i name="e_fr_energy">    -55.04874929 </i>
    <i name="e_wo_entrp">    -55.04874929 </i>
    <i name="e_0_energy">    -55.04874929 </i>
   </energy>
  </scstep>
  <scstep>
   <time name="dav">   24.59   25.10</time>
   <time name="total">   28.77   29.28</time>
   <energy>
    <i name="e_fr_energy">    -55.04879499 </i>
    <i name="e_wo_entrp">    -55.04879499 </i>
    <i name="e_0_energy">    -55.04879499 </i>
   </energy>
  </scstep>
  <scstep>
   <time name="dav">   21.74   22.31</time>
   <time name="total">   25.60   26.18</time>
   <energy>
    <i name="e_fr_energy">    -55.04881048 </i>
    <i name="e_wo_entrp">    -55.04881048 </i>
    <i name="e_0_energy">    -55.04881048 </i>
   </energy>
  </scstep>
  <scstep>
   <time name="dav">   21.20   21.20</time>
   <time name="total">   25.01   25.02</time>
   <energy>
    <i name="e_fr_energy">    -55.04879635 </i>
    <i name="e_wo_entrp">    -55.04879635 </i>
    <i name="e_0_energy">    -55.04879635 </i>
   </energy>
  </scstep>
  <scstep>
   <time name="dav">   53.15   65.13</time>
   <time name="total">   57.28   69.27</time>
   <energy>
    <i name="e_fr_energy">    -55.04879590 </i>
    <i name="e_wo_entrp">    -55.04879590 </i>
    <i name="e_0_energy">    -55.04879590 </i>
   </energy>
  </scstep>
  <scstep>
   <time name="dav">   25.67   25.67</time>
   <time name="total">   29.92   29.92</time>
   <energy>
    <i name="e_fr_energy">    -55.04879593 </i>
    <i name="e_wo_entrp">    -55.04879593 </i>
    <i name="e_0_energy">    -55.04879593 </i>
   </energy>
  </scstep>
  <scstep>
   <time name="dav">   22.25   22.26</time>
   <time name="total">   26.45   26.45</time>
   <energy>
    <i name="e_fr_energy">    -55.04879478 </i>
    <i name="e_wo_entrp">    -55.04879478 </i>
    <i name="e_0_energy">    -55.04879478 </i>
   </energy>
  </scstep>
  <scstep>
   <time name="dav">   72.71   97.82</time>
   <time name="total">   74.21   99.32</time>
   <energy>
    <i name="alphaZ">     17.99495032 </i>
    <i name="ewald">  -2950.75573799 </i>
    <i name="hartreedc">   -178.74178203 </i>
    <i name="XCdc">   -911.30035283 </i>
    <i name="pawpsdc">   5279.69537548 </i>
    <i name="pawaedc">  -4232.37714106 </i>
    <i name="eentropy">      0.00000000 </i>
    <i name="bandstr">      6.11141645 </i>
    <i name="atom">   2914.32447682 </i>
    <i name="e_fr_energy">    -55.04879484 </i>
    <i name="e_wo_entrp">    -55.04879484 </i>
    <i name="e_0_energy">    -55.04879484 </i>
   </energy>
  </scstep>
  <structure>
   <crystal>
    <varray name="basis" >
     <v>       2.21667734      -3.83939778       0.00000000 </v>
     <v>       2.21667734       3.83939778       0.00000000 </v>
     <v>       0.00000000       0.00000000      30.42555831 </v>
    </varray>
    <i name="volume">    517.88596730 </i>
    <varray name="rec_basis" >
     <v>       0.22556282      -0.13022876       0.00000000 </v>
     <v>       0.22556282       0.13022876      -0.00000000 </v>
     <v>      -0.00000000       0.00000000       0.03286710 </v>
    </varray>
   </crystal>
   <varray name="positions" >
    <v>       0.33333333       0.66666667       0.06646499 </v>
    <v>       0.33333333       0.66666667       0.26686834 </v>
    <v>       0.00000000       0.00000000       0.39979833 </v>
    <v>       0.00000000       0.00000000       0.60020167 </v>
    <v>       0.66666667       0.33333333       0.73313166 </v>
    <v>       0.66666667       0.33333333       0.93353501 </v>
    <v>       0.00000000       0.00000000       0.00000000 </v>
    <v>       0.00000000       0.00000000       0.21048582 </v>
    <v>       0.66666667       0.33333333       0.12284751 </v>
    <v>       0.66666667       0.33333333       0.33333333 </v>
    <v>       0.66666667       0.33333333       0.54381916 </v>
    <v>       0.33333333       0.66666667       0.45618084 </v>
    <v>       0.33333333       0.66666667       0.66666667 </v>
    <v>       0.33333333       0.66666667       0.87715249 </v>
    <v>       0.00000000       0.00000000       0.78951418 </v>
   </varray>
  </structure>
  <varray name="forces" >
   <v>       0.00000000       0.00000000       0.00046144 </v>
   <v>       0.00000000       0.00000000      -0.00046144 </v>
   <v>      -0.00000000       0.00000000       0.00046144 </v>
   <v>       0.00000000      -0.00000000      -0.00046144 </v>
   <v>       0.00000000      -0.00000000       0.00046144 </v>
   <v>       0.00000000      -0.00000000      -0.00046144 </v>
   <v>       0.00000000       0.00000000      -0.00000000 </v>
   <v>      -0.00000000       0.00000000       0.00062058 </v>
   <v>      -0.00000000      -0.00000000      -0.00062058 </v>
   <v>       0.00000000      -0.00000000      -0.00000000 </v>
   <v>      -0.00000000      -0.00000000       0.00062058 </v>
   <v>       0.00000000       0.00000000      -0.00062058 </v>
   <v>       0.00000000       0.00000000      -0.00000000 </v>
   <v>       0.00000000       0.00000000       0.00062058 </v>
   <v>      -0.00000000      -0.00000000      -0.00062058 </v>
  </varray>
  <varray name="stress" >
   <v>       0.00228027       0.00000000      -0.00000000 </v>
   <v>       0.00000000       0.00228027      -0.00000000 </v>
   <v>       0.00000000      -0.00000000       0.03015441 </v>
  </varray>
  <energy>
   <i name="e_fr_energy">    -59.36897246 </i>
   <i name="e_wo_entrp">    -59.36897246 </i>
   <i name="e_0_energy">      0.00000000 </i>
  </energy>
  <kpoints>
   <generation param="Gamma">
    <v type="int" name="divisions">       9        9        2 </v>
    <v name="usershift">      0.00000000       0.00000000       0.00000000 </v>
    <v name="genvec1">      0.11111111       0.00000000       0.00000000 </v>
    <v name="genvec2">      0.00000000       0.11111111       0.00000000 </v>
    <v name="genvec3">      0.00000000       0.00000000       0.50000000 </v>
    <v name="shift">      0.00000000       0.00000000       0.00000000 </v>
   </generation>
   <varray name="kpointlist" >
    <v>       0.00000000       0.00000000       0.00000000 </v>
    <v>       0.11111111       0.00000000       0.00000000 </v>
    <v>       0.22222222       0.00000000       0.00000000 </v>
    <v>       0.33333333       0.00000000       0.00000000 </v>
    <v>       0.44444444       0.00000000       0.00000000 </v>
    <v>       0.11111111       0.11111111       0.00000000 </v>
    <v>       0.22222222       0.11111111       0.00000000 </v>
    <v>       0.33333333       0.11111111       0.00000000 </v>
    <v>       0.44444444       0.11111111       0.00000000 </v>
    <v>      -0.44444444       0.11111111       0.00000000 </v>
    <v>      -0.33333333       0.11111111       0.00000000 </v>
    <v>      -0.22222222       0.11111111       0.00000000 </v>
    <v>      -0.11111111       0.11111111       0.00000000 </v>
    <v>       0.22222222       0.22222222       0.00000000 </v>
    <v>       0.33333333       0.22222222       0.00000000 </v>
    <v>       0.44444444       0.22222222       0.00000000 </v>
    <v>      -0.44444444       0.22222222       0.00000000 </v>
    <v>      -0.33333333       0.22222222       0.00000000 </v>
    <v>      -0.22222222       0.22222222       0.00000000 </v>
    <v>       0.33333333       0.33333333       0.00000000 </v>
    <v>       0.44444444       0.33333333       0.00000000 </v>
    <v>      -0.44444444       0.33333333       0.00000000 </v>
    <v>      -0.33333333       0.33333333       0.00000000 </v>
    <v>       0.44444444       0.44444444       0.00000000 </v>
    <v>      -0.44444444       0.44444444       0.00000000 </v>
    <v>       0.00000000       0.00000000       0.50000000 </v>
    <v>       0.11111111       0.00000000       0.50000000 </v>
    <v>       0.22222222       0.00000000       0.50000000 </v>
    <v>       0.33333333       0.00000000       0.50000000 </v>
    <v>       0.44444444       0.00000000       0.50000000 </v>
    <v>       0.11111111       0.11111111       0.50000000 </v>
    <v>       0.22222222       0.11111111       0.50000000 </v>
    <v>       0.33333333       0.11111111       0.50000000 </v>
    <v>       0.44444444       0.11111111       0.50000000 </v>
    <v>      -0.44444444       0.11111111       0.50000000 </v>
    <v>      -0.33333333       0.11111111       0.50000000 </v>
    <v>      -0.22222222       0.11111111       0.50000000 </v>
    <v>      -0.11111111       0.11111111       0.50000000 </v>
    <v>       0.22222222       0.22222222       0.50000000 </v>
    <v>       0.33333333       0.22222222       0.50000000 </v>
    <v>       0.44444444       0.22222222       0.50000000 </v>
    <v>      -0.44444444       0.22222222       0.50000000 </v>
    <v>      -0.33333333       0.22222222       0.50000000 </v>
    <v>      -0.22222222       0.22222222       0.50000000 </v>
    <v>       0.33333333       0.33333333       0.50000000 </v>
    <v>       0.44444444       0.33333333       0.50000000 </v>
    <v>      -0.44444444       0.33333333       0.50000000 </v>
    <v>      -0.33333333       0.33333333       0.50000000 </v>
    <v>       0.44444444       0.44444444       0.50000000 </v>
    <v>      -0.44444444       0.44444444       0.50000000 </v>
   </varray>
   <varray name="weights" >
    <v>       0.00617284 </v>
    <v>       0.02469136 </v>
    <v>       0.02469136 </v>
    <v>       0.02469136 </v>
    <v>       0.02469136 </v>
    <v>       0.01234568 </v>
    <v>       0.02469136 </v>
    <v>       0.02469136 </v>
    <v>       0.02469136 </v>
    <v>       0.02469136 </v>
    <v>       0.02469136 </v>
    <v>       0.02469136 </v>
    <v>       0.01234568 </v>
    <v>       0.01234568 </v>
    <v>       0.02469136 </v>
    <v>       0.02469136 </v>
    <v>       0.02469136 </v>
    <v>       0.02469136 </v>
    <v>       0.01234568 </v>
    <v>       0.01234568 </v>
    <v>       0.02469136 </v>
    <v>       0.02469136 </v>
    <v>       0.01234568 </v>
    <v>       0.01234568 </v>
    <v>       0.01234568 </v>
    <v>       0.00617284 </v>
    <v>       0.02469136 </v>
    <v>       0.02469136 </v>
    <v>       0.02469136 </v>
    <v>       0.02469136 </v>
    <v>       0.01234568 </v>
    <v>       0.02469136 </v>
    <v>       0.02469136 </v>
    <v>       0.02469136 </v>
    <v>       0.02469136 </v>
    <v>       0.02469136 </v>
    <v>       0.02469136 </v>
    <v>       0.01234568 </v>
    <v>       0.01234568 </v>
    <v>       0.02469136 </v>
    <v>       0.02469136 </v>
    <v>       0.02469136 </v>
    <v>       0.02469136 </v>
    <v>       0.01234568 </v>
    <v>       0.01234568 </v>
    <v>       0.02469136 </v>
    <v>       0.02469136 </v>
    <v>       0.01234568 </v>
    <v>       0.01234568 </v>
    <v>       0.01234568 </v>
   </varray>
   <varray name="tetrahedronlist"  type="int" >
    <v type="int" >        4        1        2        2       27 </v>
    <v type="int" >        4        2        2        6       27 </v>
    <v type="int" >        4        2        6       27       31 </v>
    <v type="int" >        4        1        2       26       27 </v>
    <v type="int" >        4        2       26       27       27 </v>
    <v type="int" >        4        2       27       27       31 </v>
    <v type="int" >        4        2        3        6       28 </v>
    <v type="int" >        4        3        6        7       28 </v>
    <v type="int" >        4        6        7       28       32 </v>
    <v type="int" >        4        2        6       27       28 </v>
    <v type="int" >        4        6       27       28       31 </v>
    <v type="int" >        4        6       28       31       32 </v>
    <v type="int" >        4        3        4        7       29 </v>
    <v type="int" >        4        4        7        8       29 </v>
    <v type="int" >        4        7        8       29       33 </v>
    <v type="int" >        4        3        7       28       29 </v>
    <v type="int" >        4        7       28       29       32 </v>
    <v type="int" >        4        7       29       32       33 </v>
    <v type="int" >        4        4        5        8       30 </v>
    <v type="int" >        4        5        8        9       30 </v>
    <v type="int" >        4        8        9       30       34 </v>
    <v type="int" >        4        4        8       29       30 </v>
    <v type="int" >        4        8       29       30       33 </v>
    <v type="int" >        4        8       30       33       34 </v>
    <v type="int" >        4        5        5        9       30 </v>
    <v type="int" >        4        5        9       10       30 </v>
    <v type="int" >        4        9       10       30       35 </v>
    <v type="int" >        4        5        9       30       30 </v>
    <v type="int" >        4        9       30       30       34 </v>
    <v type="int" >        4        9       30       34       35 </v>
    <v type="int" >        4        4        5       10       29 </v>
    <v type="int" >        4        4       10       11       29 </v>
    <v type="int" >        4       10       11       29       36 </v>
    <v type="int" >        4        5       10       29       30 </v>
    <v type="int" >        4       10       29       30       35 </v>
    <v type="int" >        4       10       29       35       36 </v>
    <v type="int" >        4        3        4       11       28 </v>
    <v type="int" >        4        3       11       12       28 </v>
    <v type="int" >        4       11       12       28       37 </v>
    <v type="int" >        4        4       11       28       29 </v>
    <v type="int" >        4       11       28       29       36 </v>
    <v type="int" >        4       11       28       36       37 </v>
    <v type="int" >        4        2        3       12       27 </v>
    <v type="int" >        4        2       12       13       27 </v>
    <v type="int" >        4       12       13       27       38 </v>
    <v type="int" >        4        3       12       27       28 </v>
    <v type="int" >        4       12       27       28       37 </v>
    <v type="int" >        4       12       27       37       38 </v>
    <v type="int" >        4        1        2       13       26 </v>
    <v type="int" >        4        2       13       26       27 </v>
    <v type="int" >        4       13       26       27       38 </v>
    <v type="int" >        4        2        3        6       31 </v>
    <v type="int" >        4        3        6        7       31 </v>
    <v type="int" >        4        3        7       31       32 </v>
    <v type="int" >        4        2        3       27       31 </v>
    <v type="int" >        4        3       27       28       31 </v>
    <v type="int" >        4        3       28       31       32 </v>
    <v type="int" >        4        6        7        7       32 </v>
    <v type="int" >        4        7        7       14       32 </v>
    <v type="int" >        4        7       14       32       39 </v>
    <v type="int" >        4        6        7       31       32 </v>
    <v type="int" >        4        7       31       32       32 </v>
    <v type="int" >        4        7       32       32       39 </v>
    <v type="int" >        4        7        8       14       33 </v>
    <v type="int" >        4        8       14       15       33 </v>
    <v type="int" >        4       14       15       33       40 </v>
    <v type="int" >        4        7       14       32       33 </v>
    <v type="int" >        4       14       32       33       39 </v>
    <v type="int" >        4       14       33       39       40 </v>
    <v type="int" >        4        8        9       15       34 </v>
    <v type="int" >        4        9       15       16       34 </v>
    <v type="int" >        4       15       16       34       41 </v>
    <v type="int" >        4        8       15       33       34 </v>
    <v type="int" >        4       15       33       34       40 </v>
    <v type="int" >        4       15       34       40       41 </v>
    <v type="int" >        4        9       10       16       35 </v>
    <v type="int" >        4       10       16       17       35 </v>
    <v type="int" >        4       16       17       35       42 </v>
    <v type="int" >        4        9       16       34       35 </v>
    <v type="int" >        4       16       34       35       41 </v>
    <v type="int" >        4       16       35       41       42 </v>
    <v type="int" >        4       10       11       17       36 </v>
    <v type="int" >        4       11       17       18       36 </v>
    <v type="int" >        4       17       18       36       43 </v>
    <v type="int" >        4       10       17       35       36 </v>
    <v type="int" >        4       17       35       36       42 </v>
    <v type="int" >        4       17       36       42       43 </v>
    <v type="int" >        4       11       12       18       37 </v>
    <v type="int" >        4       12       18       19       37 </v>
    <v type="int" >        4       18       19       37       44 </v>
    <v type="int" >        4       11       18       36       37 </v>
    <v type="int" >        4       18       36       37       43 </v>
    <v type="int" >        4       18       37       43       44 </v>
    <v type="int" >        4       12       13       19       38 </v>
    <v type="int" >        4       12       19       37       38 </v>
    <v type="int" >        4       19       37       38       44 </v>
    <v type="int" >        4        3        4        7       32 </v>
    <v type="int" >        4        4        7        8       32 </v>
    <v type="int" >        4        4        8       32       33 </v>
    <v type="int" >        4        3        4       28       32 </v>
    <v type="int" >        4        4       28       29       32 </v>
    <v type="int" >        4        4       29       32       33 </v>
    <v type="int" >        4        7        8       14       39 </v>
    <v type="int" >        4        8       14       15       39 </v>
    <v type="int" >        4        8       15       39       40 </v>
    <v type="int" >        4        7        8       32       39 </v>
    <v type="int" >        4        8       32       33       39 </v>
    <v type="int" >        4        8       33       39       40 </v>
    <v type="int" >        4       14       15       15       40 </v>
    <v type="int" >        4       15       15       20       40 </v>
    <v type="int" >        4       15       20       40       45 </v>
    <v type="int" >        4       14       15       39       40 </v>
    <v type="int" >        4       15       39       40       40 </v>
    <v type="int" >        4       15       40       40       45 </v>
    <v type="int" >        4       15       16       20       41 </v>
    <v type="int" >        4       16       20       21       41 </v>
    <v type="int" >        4       20       21       41       46 </v>
    <v type="int" >        4       15       20       40       41 </v>
    <v type="int" >        4       20       40       41       45 </v>
    <v type="int" >        4       20       41       45       46 </v>
    <v type="int" >        4       16       17       21       42 </v>
    <v type="int" >        4       17       21       22       42 </v>
    <v type="int" >        4       21       22       42       47 </v>
    <v type="int" >        4       16       21       41       42 </v>
    <v type="int" >        4       21       41       42       46 </v>
    <v type="int" >        4       21       42       46       47 </v>
    <v type="int" >        4       17       18       22       43 </v>
    <v type="int" >        4       18       22       23       43 </v>
    <v type="int" >        4       22       23       43       48 </v>
    <v type="int" >        4       17       22       42       43 </v>
    <v type="int" >        4       22       42       43       47 </v>
    <v type="int" >        4       22       43       47       48 </v>
    <v type="int" >        4       18       19       23       44 </v>
    <v type="int" >        4       18       23       43       44 </v>
    <v type="int" >        4       23       43       44       48 </v>
    <v type="int" >        4        4        5        8       33 </v>
    <v type="int" >        4        5        8        9       33 </v>
    <v type="int" >        4        5        9       33       34 </v>
    <v type="int" >        4        4        5       29       33 </v>
    <v type="int" >        4        5       29       30       33 </v>
    <v type="int" >        4        5       30       33       34 </v>
    <v type="int" >        4        8        9       15       40 </v>
    <v type="int" >        4        9       15       16       40 </v>
    <v type="int" >        4        9       16       40       41 </v>
    <v type="int" >        4        8        9       33       40 </v>
    <v type="int" >        4        9       33       34       40 </v>
    <v type="int" >        4        9       34       40       41 </v>
    <v type="int" >        4       15       16       20       45 </v>
    <v type="int" >        4       16       20       21       45 </v>
    <v type="int" >        4       16       21       45       46 </v>
    <v type="int" >        4       15       16       40       45 </v>
    <v type="int" >        4       16       40       41       45 </v>
    <v type="int" >        4       16       41       45       46 </v>
    <v type="int" >        4       20       21       21       46 </v>
    <v type="int" >        4       21       21       24       46 </v>
    <v type="int" >        4       21       24       46       49 </v>
    <v type="int" >        4       20       21       45       46 </v>
    <v type="int" >        4       21       45       46       46 </v>
    <v type="int" >        4       21       46       46       49 </v>
    <v type="int" >        4       21       22       24       47 </v>
    <v type="int" >        4       22       24       25       47 </v>
    <v type="int" >        4       24       25       47       50 </v>
    <v type="int" >        4       21       24       46       47 </v>
    <v type="int" >        4       24       46       47       49 </v>
    <v type="int" >        4       24       47       49       50 </v>
    <v type="int" >        4       22       23       25       48 </v>
    <v type="int" >        4       22       25       47       48 </v>
    <v type="int" >        4       25       47       48       50 </v>
    <v type="int" >        4        5        5        9       34 </v>
    <v type="int" >        4        5        9       10       34 </v>
    <v type="int" >        4        5       10       34       35 </v>
    <v type="int" >        4        5        5       30       34 </v>
    <v type="int" >        4        5       30       30       34 </v>
    <v type="int" >        4        5       30       34       35 </v>
    <v type="int" >        4        9       10       16       41 </v>
    <v type="int" >        4       10       16       17       41 </v>
    <v type="int" >        4       10       17       41       42 </v>
    <v type="int" >        4        9       10       34       41 </v>
    <v type="int" >        4       10       34       35       41 </v>
    <v type="int" >        4       10       35       41       42 </v>
    <v type="int" >        4       16       17       21       46 </v>
    <v type="int" >        4       17       21       22       46 </v>
    <v type="int" >        4       17       22       46       47 </v>
    <v type="int" >        4       16       17       41       46 </v>
    <v type="int" >        4       17       41       42       46 </v>
    <v type="int" >        4       17       42       46       47 </v>
    <v type="int" >        4       21       22       24       49 </v>
    <v type="int" >        4       22       24       25       49 </v>
    <v type="int" >        4       22       25       49       50 </v>
    <v type="int" >        4       21       22       46       49 </v>
    <v type="int" >        4       22       46       47       49 </v>
    <v type="int" >        4       22       47       49       50 </v>
    <v type="int" >        4       24       25       25       50 </v>
    <v type="int" >        4       24       25       49       50 </v>
    <v type="int" >        4       25       49       50       50 </v>
    <v type="int" >        4        4        5       10       35 </v>
    <v type="int" >        4        4       10       11       35 </v>
    <v type="int" >        4        4       11       35       36 </v>
    <v type="int" >        4        4        5       30       35 </v>
    <v type="int" >        4        4       29       30       35 </v>
    <v type="int" >        4        4       29       35       36 </v>
    <v type="int" >        4       10       11       17       42 </v>
    <v type="int" >        4       11       17       18       42 </v>
    <v type="int" >        4       11       18       42       43 </v>
    <v type="int" >        4       10       11       35       42 </v>
    <v type="int" >        4       11       35       36       42 </v>
    <v type="int" >        4       11       36       42       43 </v>
    <v type="int" >        4       17       18       22       47 </v>
    <v type="int" >        4       18       22       23       47 </v>
    <v type="int" >        4       18       23       47       48 </v>
    <v type="int" >        4       17       18       42       47 </v>
    <v type="int" >        4       18       42       43       47 </v>
    <v type="int" >        4       18       43       47       48 </v>
    <v type="int" >        4       22       23       25       50 </v>
    <v type="int" >        4       22       23       47       50 </v>
    <v type="int" >        4       23       47       48       50 </v>
    <v type="int" >        4        3        4       11       36 </v>
    <v type="int" >        4        3       11       12       36 </v>
    <v type="int" >        4        3       12       36       37 </v>
    <v type="int" >        4        3        4       29       36 </v>
    <v type="int" >        4        3       28       29       36 </v>
    <v type="int" >        4        3       28       36       37 </v>
    <v type="int" >        4       11       12       18       43 </v>
    <v type="int" >        4       12       18       19       43 </v>
    <v type="int" >        4       12       19       43       44 </v>
    <v type="int" >        4       11       12       36       43 </v>
    <v type="int" >        4       12       36       37       43 </v>
    <v type="int" >        4       12       37       43       44 </v>
    <v type="int" >        4       18       19       23       48 </v>
    <v type="int" >        4       18       19       43       48 </v>
    <v type="int" >        4       19       43       44       48 </v>
    <v type="int" >        4        2        3       12       37 </v>
    <v type="int" >        4        2       12       13       37 </v>
    <v type="int" >        4        2       13       37       38 </v>
    <v type="int" >        4        2        3       28       37 </v>
    <v type="int" >        4        2       27       28       37 </v>
    <v type="int" >        4        2       27       37       38 </v>
    <v type="int" >        4       12       13       19       44 </v>
    <v type="int" >        4       12       13       37       44 </v>
    <v type="int" >        4       13       37       38       44 </v>
    <v type="int" >        4        1        2       13       38 </v>
    <v type="int" >        4        1        2       27       38 </v>
    <v type="int" >        4        1       26       27       38 </v>
   </varray>
   <i name="volumeweight">      0.00102881 </i>
  </kpoints>
  <time name="totalsc">  987.22 1158.82</time>
 </calculation>
 <calculation>
  <scstep>
   <time name="dav">  392.54  432.46</time>
   <time name="total">  402.52  443.53</time>
   <energy>
    <i name="alphaZ">     17.64210816 </i>
    <i name="ewald">  -2931.30993831 </i>
    <i name="hartreedc">   -177.52031737 </i>
    <i name="XCdc">   -911.53890680 </i>
    <i name="pawpsdc">   5279.66757105 </i>
    <i name="pawaedc">  -4232.34962184 </i>
    <i name="eentropy">      0.00000000 </i>
    <i name="bandstr">    -14.07592953 </i>
    <i name="atom">   2914.32447682 </i>
    <i name="e_fr_energy">    -55.16055782 </i>
    <i name="e_wo_entrp">    -55.16055782 </i>
    <i name="e_0_energy">    -55.16055782 </i>
   </energy>
  </scstep>
  <scstep>
   <time name="dav">  128.70  151.84</time>
   <time name="total">  138.08  161.71</time>
   <energy>
    <i name="e_fr_energy">    -55.09558502 </i>
    <i name="e_wo_entrp">    -55.09558502 </i>
    <i name="e_0_energy">    -55.09558502 </i>
   </energy>
  </scstep>
  <scstep>
   <time name="dav">  208.19  265.45</time>
   <time name="total">  214.23  271.48</time>
   <energy>
    <i name="e_fr_energy">    -55.07727755 </i>
    <i name="e_wo_entrp">    -55.07727755 </i>
    <i name="e_0_energy">    -55.07727755 </i>
   </energy>
  </scstep>
  <scstep>
   <time name="dav">   91.67  109.31</time>
   <time name="total">   97.65  115.29</time>
   <energy>
    <i name="e_fr_energy">    -55.06675268 </i>
    <i name="e_wo_entrp">    -55.06675268 </i>
    <i name="e_0_energy">    -55.06675268 </i>
   </energy>
  </scstep>
  <scstep>
   <time name="dav">  178.09  226.12</time>
   <time name="total">  184.19  232.22</time>
   <energy>
    <i name="e_fr_energy">    -55.06534805 </i>
    <i name="e_wo_entrp">    -55.06534805 </i>
    <i name="e_0_energy">    -55.06534805 </i>
   </energy>
  </scstep>
  <scstep>
   <time name="dav">   86.30   90.55</time>
   <time name="total">   92.36   96.61</time>
   <energy>
    <i name="e_fr_energy">    -55.06536198 </i>
    <i name="e_wo_entrp">    -55.06536198 </i>
    <i name="e_0_energy">    -55.06536198 </i>
   </energy>
  </scstep>
  <scstep>
   <time name="dav">  200.59  230.48</time>
   <time name="total">  206.72  239.17</time>
   <energy>
    <i name="e_fr_energy">    -55.06533355 </i>
    <i name="e_wo_entrp">    -55.06533355 </i>
    <i name="e_0_energy">    -55.06533355 </i>
   </energy>
  </scstep>
  <scstep>
   <time name="dav">  352.87  396.26</time>
   <time name="total">  361.19  406.45</time>
   <energy>
    <i name="e_fr_energy">    -55.06534328 </i>
    <i name="e_wo_entrp">    -55.06534328 </i>
    <i name="e_0_energy">    -55.06534328 </i>
   </energy>
  </scstep>
  <scstep>
   <time name="dav">   43.63   43.64</time>
   <time name="total">   49.27   49.27</time>
   <energy>
    <i name="e_fr_energy">    -55.06534354 </i>
    <i name="e_wo_entrp">    -55.06534354 </i>
    <i name="e_0_energy">    -55.06534354 </i>
   </energy>
  </scstep>
  <scstep>
   <time name="dav">   34.73   34.74</time>
   <time name="total">   40.21   40.21</time>
   <energy>
    <i name="e_fr_energy">    -55.06534372 </i>
    <i name="e_wo_entrp">    -55.06534372 </i>
    <i name="e_0_energy">    -55.06534372 </i>
   </energy>
  </scstep>
  <scstep>
   <time name="dav">  189.48  239.95</time>
   <time name="total">  195.52  245.99</time>
   <energy>
    <i name="e_fr_energy">    -55.06534437 </i>
    <i name="e_wo_entrp">    -55.06534437 </i>
    <i name="e_0_energy">    -55.06534437 </i>
   </energy>
  </scstep>
  <scstep>
   <time name="dav">   33.07   33.63</time>
   <time name="total">   39.21   39.77</time>
   <energy>
    <i name="e_fr_energy">    -55.06534486 </i>
    <i name="e_wo_entrp">    -55.06534486 </i>
    <i name="e_0_energy">    -55.06534486 </i>
   </energy>
  </scstep>
  <scstep>
   <time name="dav">   32.57   33.14</time>
   <time name="total">   38.34   39.54</time>
   <energy>
    <i name="e_fr_energy">    -55.06534471 </i>
    <i name="e_wo_entrp">    -55.06534471 </i>
    <i name="e_0_energy">    -55.06534471 </i>
   </energy>
  </scstep>
  <scstep>
   <time name="dav">   39.65   41.91</time>
   <time name="total">   45.97   49.52</time>
   <energy>
    <i name="e_fr_energy">    -55.06534460 </i>
    <i name="e_wo_entrp">    -55.06534460 </i>
    <i name="e_0_energy">    -55.06534460 </i>
   </energy>
  </scstep>
  <scstep>
   <time name="dav">   34.39   35.35</time>
   <time name="total">   38.88   40.62</time>
   <energy>
    <i name="alphaZ">     17.64210816 </i>
    <i name="ewald">  -2931.30993831 </i>
    <i name="hartreedc">   -183.33694611 </i>
    <i name="XCdc">   -911.88884211 </i>
    <i name="pawpsdc">   5174.11306451 </i>
    <i name="pawaedc">  -4126.64692632 </i>
    <i name="eentropy">      0.00000000 </i>
    <i name="bandstr">     -7.96234116 </i>
    <i name="atom">   2914.32447682 </i>
    <i name="e_fr_energy">    -55.06534453 </i>
    <i name="e_wo_entrp">    -55.06534453 </i>
    <i name="e_0_energy">    -55.06534453 </i>
   </energy>
  </scstep>
  <structure>
   <crystal>
    <varray name="basis" >
     <v>       2.26101089      -3.83939778       0.00000000 </v>
     <v>       2.26101089       3.83939778       0.00000000 </v>
     <v>       0.00000000       0.00000000      30.42555831 </v>
    </varray>
    <i name="volume">    528.24368665 </i>
    <varray name="rec_basis" >
     <v>       0.22114002      -0.13022876       0.00000000 </v>
     <v>       0.22114002       0.13022876      -0.00000000 </v>
     <v>      -0.00000000       0.00000000       0.03286710 </v>
    </varray>
   </crystal>
   <varray name="positions" >
    <v>       0.33333333       0.66666667       0.06646499 </v>
    <v>       0.33333333       0.66666667       0.26686834 </v>
    <v>       0.00000000       0.00000000       0.39979833 </v>
    <v>       0.00000000       0.00000000       0.60020167 </v>
    <v>       0.66666667       0.33333333       0.73313166 </v>
    <v>       0.66666667       0.33333333       0.93353501 </v>
    <v>       0.00000000       0.00000000       0.00000000 </v>
    <v>       0.00000000       0.00000000       0.21048582 </v>
    <v>       0.66666667       0.33333333       0.12284751 </v>
    <v>       0.66666667       0.33333333       0.33333333 </v>
    <v>       0.66666667       0.33333333       0.54381916 </v>
    <v>       0.33333333       0.66666667       0.45618084 </v>
    <v>       0.33333333       0.66666667       0.66666667 </v>
    <v>       0.33333333       0.66666667       0.87715249 </v>
    <v>       0.00000000       0.00000000       0.78951418 </v>
   </varray>
  </structure>
  <varray name="forces" >
   <v>       0.00000000       0.02722693       0.05112143 </v>
   <v>       0.00000000      -0.02722693      -0.05112143 </v>
   <v>       0.00000000       0.02722693       0.05112143 </v>
   <v>       0.00000000      -0.02722693      -0.05112143 </v>
   <v>       0.00000000       0.02722693       0.05112143 </v>
   <v>       0.00000000      -0.02722693      -0.05112143 </v>
   <v>       0.00000000       0.00000000      -0.00000000 </v>
   <v>       0.00000000       0.06438508       0.10340395 </v>
   <v>       0.00000000      -0.06438508      -0.10340395 </v>
   <v>      -0.00000000       0.00000000      -0.00000000 </v>
   <v>       0.00000000       0.06438508       0.10340395 </v>
   <v>       0.00000000      -0.06438508      -0.10340395 </v>
   <v>       0.00000000       0.00000000      -0.00000000 </v>
   <v>       0.00000000       0.06438508       0.10340395 </v>
   <v>       0.00000000      -0.06438508      -0.10340395 </v>
  </varray>
  <varray name="stress" >
   <v>     -16.84490528       0.00000000       0.00000000 </v>
   <v>       0.00000000      -4.29382410      -4.81545691 </v>
   <v>       0.00000000      -4.81545722      -7.46514622 </v>
  </varray>
  <energy>
   <i name="e_fr_energy">    -59.31329513 </i>
   <i name="e_wo_entrp">    -59.31329513 </i>
   <i name="e_0_energy">      0.00000000 </i>
  </energy>
  <kpoints>
   <generation param="Gamma">
    <v type="int" name="divisions">       9        9        2 </v>
    <v name="usershift">      0.00000000       0.00000000       0.00000000 </v>
    <v name="genvec1">      0.11111111      -0.00000000       0.00000000 </v>
    <v name="genvec2">     -0.00000000       0.11111111       0.00000000 </v>
    <v name="genvec3">      0.00000000       0.00000000       0.50000000 </v>
    <v name="shift">      0.00000000       0.00000000       0.00000000 </v>
   </generation>
   <varray name="kpointlist" >
    <v>       0.00000000       0.00000000       0.00000000 </v>
    <v>       0.11111111       0.00000000       0.00000000 </v>
    <v>       0.22222222       0.00000000       0.00000000 </v>
    <v>       0.33333333       0.00000000       0.00000000 </v>
    <v>       0.44444444       0.00000000       0.00000000 </v>
    <v>       0.11111111       0.11111111       0.00000000 </v>
    <v>       0.22222222       0.11111111       0.00000000 </v>
    <v>       0.33333333       0.11111111       0.00000000 </v>
    <v>       0.44444444       0.11111111       0.00000000 </v>
    <v>      -0.44444444       0.11111111       0.00000000 </v>
    <v>      -0.33333333       0.11111111       0.00000000 </v>
    <v>      -0.22222222       0.11111111       0.00000000 </v>
    <v>      -0.11111111       0.11111111       0.00000000 </v>
    <v>       0.22222222       0.22222222       0.00000000 </v>
    <v>       0.33333333       0.22222222       0.00000000 </v>
    <v>       0.44444444       0.22222222       0.00000000 </v>
    <v>      -0.44444444       0.22222222       0.00000000 </v>
    <v>      -0.33333333       0.22222222       0.00000000 </v>
    <v>      -0.22222222       0.22222222       0.00000000 </v>
    <v>       0.33333333       0.33333333       0.00000000 </v>
    <v>       0.44444444       0.33333333       0.00000000 </v>
    <v>      -0.44444444       0.33333333       0.00000000 </v>
    <v>      -0.33333333       0.33333333       0.00000000 </v>
    <v>       0.44444444       0.44444444       0.00000000 </v>
    <v>      -0.44444444       0.44444444       0.00000000 </v>
    <v>       0.00000000       0.00000000       0.50000000 </v>
    <v>       0.11111111       0.00000000       0.50000000 </v>
    <v>       0.22222222       0.00000000       0.50000000 </v>
    <v>       0.33333333       0.00000000       0.50000000 </v>
    <v>       0.44444444       0.00000000       0.50000000 </v>
    <v>       0.11111111       0.11111111       0.50000000 </v>
    <v>       0.22222222       0.11111111       0.50000000 </v>
    <v>       0.33333333       0.11111111       0.50000000 </v>
    <v>       0.44444444       0.11111111       0.50000000 </v>
    <v>      -0.44444444       0.11111111       0.50000000 </v>
    <v>      -0.33333333       0.11111111       0.50000000 </v>
    <v>      -0.22222222       0.11111111       0.50000000 </v>
    <v>      -0.11111111       0.11111111       0.50000000 </v>
    <v>       0.22222222       0.22222222       0.50000000 </v>
    <v>       0.33333333       0.22222222       0.50000000 </v>
    <v>       0.44444444       0.22222222       0.50000000 </v>
    <v>      -0.44444444       0.22222222       0.50000000 </v>
    <v>      -0.33333333       0.22222222       0.50000000 </v>
    <v>      -0.22222222       0.22222222       0.50000000 </v>
    <v>       0.33333333       0.33333333       0.50000000 </v>
    <v>       0.44444444       0.33333333       0.50000000 </v>
    <v>      -0.44444444       0.33333333       0.50000000 </v>
    <v>      -0.33333333       0.33333333       0.50000000 </v>
    <v>       0.44444444       0.44444444       0.50000000 </v>
    <v>      -0.44444444       0.44444444       0.50000000 </v>
   </varray>
   <varray name="weights" >
    <v>       0.00617284 </v>
    <v>       0.02469136 </v>
    <v>       0.02469136 </v>
    <v>       0.02469136 </v>
    <v>       0.02469136 </v>
    <v>       0.01234568 </v>
    <v>       0.02469136 </v>
    <v>       0.02469136 </v>
    <v>       0.02469136 </v>
    <v>       0.02469136 </v>
    <v>       0.02469136 </v>
    <v>       0.02469136 </v>
    <v>       0.01234568 </v>
    <v>       0.01234568 </v>
    <v>       0.02469136 </v>
    <v>       0.02469136 </v>
    <v>       0.02469136 </v>
    <v>       0.02469136 </v>
    <v>       0.01234568 </v>
    <v>       0.01234568 </v>
    <v>       0.02469136 </v>
    <v>       0.02469136 </v>
    <v>       0.01234568 </v>
    <v>       0.01234568 </v>
    <v>       0.01234568 </v>
    <v>       0.00617284 </v>
    <v>       0.02469136 </v>
    <v>       0.02469136 </v>
    <v>       0.02469136 </v>
    <v>       0.02469136 </v>
    <v>       0.01234568 </v>
    <v>       0.02469136 </v>
    <v>       0.02469136 </v>
    <v>       0.02469136 </v>
    <v>       0.02469136 </v>
    <v>       0.02469136 </v>
    <v>       0.02469136 </v>
    <v>       0.01234568 </v>
    <v>       0.01234568 </v>
    <v>       0.02469136 </v>
    <v>       0.02469136 </v>
    <v>       0.02469136 </v>
    <v>       0.02469136 </v>
    <v>       0.01234568 </v>
    <v>       0.01234568 </v>
    <v>       0.02469136 </v>
    <v>       0.02469136 </v>
    <v>       0.01234568 </v>
    <v>       0.01234568 </v>
    <v>       0.01234568 </v>
   </varray>
   <varray name="tetrahedronlist"  type="int" >
    <v type="int" >        4        1        2        2       27 </v>
    <v type="int" >        4        2        2        6       27 </v>
    <v type="int" >        4        2        6       27       31 </v>
    <v type="int" >        4        1        2       26       27 </v>
    <v type="int" >        4        2       26       27       27 </v>
    <v type="int" >        4        2       27       27       31 </v>
    <v type="int" >        4        2        3        6       28 </v>
    <v type="int" >        4        3        6        7       28 </v>
    <v type="int" >        4        6        7       28       32 </v>
    <v type="int" >        4        2        6       27       28 </v>
    <v type="int" >        4        6       27       28       31 </v>
    <v type="int" >        4        6       28       31       32 </v>
    <v type="int" >        4        3        4        7       29 </v>
    <v type="int" >        4        4        7        8       29 </v>
    <v type="int" >        4        7        8       29       33 </v>
    <v type="int" >        4        3        7       28       29 </v>
    <v type="int" >        4        7       28       29       32 </v>
    <v type="int" >        4        7       29       32       33 </v>
    <v type="int" >        4        4        5        8       30 </v>
    <v type="int" >        4        5        8        9       30 </v>
    <v type="int" >        4        8        9       30       34 </v>
    <v type="int" >        4        4        8       29       30 </v>
    <v type="int" >        4        8       29       30       33 </v>
    <v type="int" >        4        8       30       33       34 </v>
    <v type="int" >        4        5        5        9       30 </v>
    <v type="int" >        4        5        9       10       30 </v>
    <v type="int" >        4        9       10       30       35 </v>
    <v type="int" >        4        5        9       30       30 </v>
    <v type="int" >        4        9       30       30       34 </v>
    <v type="int" >        4        9       30       34       35 </v>
    <v type="int" >        4        4        5       10       29 </v>
    <v type="int" >        4        4       10       11       29 </v>
    <v type="int" >        4       10       11       29       36 </v>
    <v type="int" >        4        5       10       29       30 </v>
    <v type="int" >        4       10       29       30       35 </v>
    <v type="int" >        4       10       29       35       36 </v>
    <v type="int" >        4        3        4       11       28 </v>
    <v type="int" >        4        3       11       12       28 </v>
    <v type="int" >        4       11       12       28       37 </v>
    <v type="int" >        4        4       11       28       29 </v>
    <v type="int" >        4       11       28       29       36 </v>
    <v type="int" >        4       11       28       36       37 </v>
    <v type="int" >        4        2        3       12       27 </v>
    <v type="int" >        4        2       12       13       27 </v>
    <v type="int" >        4       12       13       27       38 </v>
    <v type="int" >        4        3       12       27       28 </v>
    <v type="int" >        4       12       27       28       37 </v>
    <v type="int" >        4       12       27       37       38 </v>
    <v type="int" >        4        1        2       13       26 </v>
    <v type="int" >        4        2       13       26       27 </v>
[...]
       <r>    2.3638    1.0000 </r>
       <r>    2.4605    1.0000 </r>
       <r>    2.5360    1.0000 </r>
       <r>    2.6994    1.0000 </r>
       <r>    3.0819    1.0000 </r>
       <r>    3.1697    1.0000 </r>
       <r>    3.6108    1.0000 </r>
       <r>    3.9046    1.0000 </r>
       <r>    4.0282    1.0000 </r>
       <r>    4.2049    1.0000 </r>
       <r>    4.3356    1.0000 </r>
       <r>    4.4174    1.0000 </r>
       <r>    4.6832    1.0000 </r>
       <r>    4.8885    1.0000 </r>
       <r>    5.0069    1.0000 </r>
       <r>    6.6675    0.0000 </r>
       <r>    6.6699    0.0000 </r>
       <r>    6.8065    0.0000 </r>
       <r>    7.1504    0.0000 </r>
       <r>    7.4310    0.0000 </r>
       <r>    7.4554    0.0000 </r>
       <r>    7.5185    0.0000 </r>
       <r>    7.8558    0.0000 </r>
       <r>    7.9394    0.0000 </r>
       <r>    8.5801    0.0000 </r>
       <r>    8.7802    0.0000 </r>
       <r>    8.8165    0.0000 </r>
       <r>    9.1541    0.0000 </r>
       <r>    9.3012    0.0000 </r>
      </set>
      <set comment="kpoint 24">
       <r>   -5.4472    1.0000 </r>
       <r>   -5.4446    1.0000 </r>
       <r>   -5.4382    1.0000 </r>
       <r>   -5.4310    1.0000 </r>
       <r>   -5.4285    1.0000 </r>
       <r>   -5.4130    1.0000 </r>
       <r>   -5.1777    1.0000 </r>
       <r>   -5.1765    1.0000 </r>
       <r>   -5.1741    1.0000 </r>
       <r>   -5.1735    1.0000 </r>
       <r>   -5.1716    1.0000 </r>
       <r>   -5.1474    1.0000 </r>
       <r>   -5.1297    1.0000 </r>
       <r>   -5.1262    1.0000 </r>
       <r>   -5.1233    1.0000 </r>
       <r>    0.8637    1.0000 </r>
       <r>    0.8637    1.0000 </r>
       <r>    0.8770    1.0000 </r>
       <r>    1.3023    1.0000 </r>
       <r>    1.3036    1.0000 </r>
       <r>    1.3042    1.0000 </r>
       <r>    1.3122    1.0000 </r>
       <r>    1.3156    1.0000 </r>
       <r>    1.3158    1.0000 </r>
       <r>    1.8623    1.0000 </r>
       <r>    1.8673    1.0000 </r>
       <r>    1.8771    1.0000 </r>
       <r>    2.3440    1.0000 </r>
       <r>    2.3445    1.0000 </r>
       <r>    2.3481    1.0000 </r>
       <r>    2.9667    1.0000 </r>
       <r>    2.9668    1.0000 </r>
       <r>    2.9692    1.0000 </r>
       <r>    3.6325    1.0000 </r>
       <r>    3.6347    1.0000 </r>
       <r>    3.6356    1.0000 </r>
       <r>    4.5312    1.0000 </r>
       <r>    4.5416    1.0000 </r>
       <r>    4.5428    1.0000 </r>
       <r>    4.7128    1.0000 </r>
       <r>    4.7171    1.0000 </r>
       <r>    4.7203    1.0000 </r>
       <r>    6.9217    0.0000 </r>
       <r>    6.9313    0.0000 </r>
       <r>    6.9334    0.0000 </r>
       <r>    7.1614    0.0000 </r>
       <r>    7.1629    0.0000 </r>
       <r>    7.1722    0.0000 </r>
       <r>    8.0799    0.0000 </r>
       <r>    8.0799    0.0000 </r>
       <r>    8.0824    0.0000 </r>
       <r>    8.8198    0.0000 </r>
       <r>    8.8203    0.0000 </r>
       <r>    8.8226    0.0000 </r>
       <r>    9.5900    0.0000 </r>
       <r>    9.5951    0.0000 </r>
      </set>
     </set>
    </set>
   </array>
  </eigenvalues>
  <separator name="orbital magnetization" >
   <v name="MAGDIPOLOUT">      0.00000000      0.00000000      0.00000000</v>
  </separator>
  <dos>
   <i name="efermi">      5.50024426 </i>
   <total>
    <array>
     <dimension dim="1">gridpoints</dimension>
     <dimension dim="2">spin</dimension>
     <field>energy</field>
     <field>total</field>
     <field>integrated</field>
     <set>
      <set comment="spin 1">
       <r>    -9.6969     0.0000     0.0000 </r>
       <r>    -9.6259     0.0000     0.0000 </r>
       <r>    -9.5550     0.0000     0.0000 </r>
       <r>    -9.4840     0.0000     0.0000 </r>
       <r>    -9.4130     0.0000     0.0000 </r>
       <r>    -9.3420     0.0000     0.0000 </r>
       <r>    -9.2711     0.0000     0.0000 </r>
       <r>    -9.2001     0.0000     0.0000 </r>
       <r>    -9.1291     0.0000     0.0000 </r>
       <r>    -9.0582     0.0000     0.0000 </r>
       <r>    -8.9872     0.0000     0.0000 </r>
       <r>    -8.9162     0.0000     0.0000 </r>
       <r>    -8.8452     0.0000     0.0000 </r>
       <r>    -8.7743     0.0000     0.0000 </r>
       <r>    -8.7033     0.0000     0.0000 </r>
       <r>    -8.6323     0.0000     0.0000 </r>
       <r>    -8.5613     0.0000     0.0000 </r>
       <r>    -8.4904     0.0000     0.0000 </r>
       <r>    -8.4194     0.0000     0.0000 </r>
       <r>    -8.3484     0.0000     0.0000 </r>
       <r>    -8.2774     0.0000     0.0000 </r>
       <r>    -8.2065     0.0000     0.0000 </r>
       <r>    -8.1355     0.0000     0.0000 </r>
       <r>    -8.0645     0.0000     0.0000 </r>
       <r>    -7.9936     0.0000     0.0000 </r>
       <r>    -7.9226     0.0000     0.0000 </r>
       <r>    -7.8516     0.0000     0.0000 </r>
       <r>    -7.7806     0.0000     0.0000 </r>
       <r>    -7.7097     0.0000     0.0000 </r>
       <r>    -7.6387     0.7812     0.0174 </r>
       <r>    -7.5677     2.0096     0.1283 </r>
       <r>    -7.4967     2.7326     0.3016 </r>
       <r>    -7.4258     2.5838     0.4843 </r>
       <r>    -7.3548     2.7852     0.6762 </r>
       <r>    -7.2838     2.7329     0.8733 </r>
       <r>    -7.2128     3.1319     1.0744 </r>
       <r>    -7.1419     3.8857     1.3291 </r>
       <r>    -7.0709     4.5009     1.6235 </r>
       <r>    -6.9999     5.3429     1.9687 </r>
       <r>    -6.9290     5.9149     2.3795 </r>
       <r>    -6.8580     5.7697     2.7888 </r>
       <r>    -6.7870     5.9059     3.2034 </r>
       <r>    -6.7160     6.0047     3.6267 </r>
       <r>    -6.6451     6.1421     4.0567 </r>
       <r>    -6.5741     6.3182     4.4995 </r>
       <r>    -6.5031     6.5047     4.9550 </r>
       <r>    -6.4321     6.6355     5.4212 </r>
       <r>    -6.3612     6.8546     5.8987 </r>
       <r>    -6.2902     7.2480     6.3987 </r>
       <r>    -6.2192     7.6919     6.9285 </r>
       <r>    -6.1482     9.2175     7.5316 </r>
       <r>    -6.0773     9.2168     8.1914 </r>
       <r>    -6.0063    10.5767     8.8663 </r>
       <r>    -5.9353    11.5281     9.6811 </r>
       <r>    -5.8644     5.9186    10.5687 </r>
       <r>    -5.7934     5.4858    10.9735 </r>
       <r>    -5.7224     4.6008    11.3364 </r>
       <r>    -5.6514     4.5874    11.6602 </r>
       <r>    -5.5805     4.2037    11.9762 </r>
       <r>    -5.5095     4.0368    12.2699 </r>
       <r>    -5.4385     3.8920    12.5483 </r>
       <r>    -5.3675     9.8482    13.0083 </r>
       <r>    -5.2966    16.6409    13.9635 </r>
       <r>    -5.2256    18.8594    15.1697 </r>
       <r>    -5.1546    14.3569    16.7598 </r>
       <r>    -5.0836    12.7379    17.7990 </r>
       <r>    -5.0127     2.5654    18.1770 </r>
       <r>    -4.9417     5.3168    18.4297 </r>
       <r>    -4.8707     6.9797    18.8347 </r>
       <r>    -4.7998     7.4249    19.3583 </r>
       <r>    -4.7288     8.2001    19.9122 </r>
       <r>    -4.6578     8.2202    20.4787 </r>
       <r>    -4.5868     8.4094    21.0904 </r>
       <r>    -4.5159     7.6360    21.6498 </r>
       <r>    -4.4449     7.4811    22.1823 </r>
       <r>    -4.3739     8.3983    22.7405 </r>
       <r>    -4.3029    10.1097    23.3961 </r>
       <r>    -4.2320     9.9015    24.1067 </r>
       <r>    -4.1610    10.1186    24.8124 </r>
       <r>    -4.0900     8.0571    25.4712 </r>
       <r>    -4.0191     6.8428    25.9929 </r>
       <r>    -3.9481     5.9863    26.4452 </r>
       <r>    -3.8771     5.2717    26.8436 </r>
       <r>    -3.8061     4.6629    27.1958 </r>
       <r>    -3.7352     4.3587    27.5120 </r>
       <r>    -3.6642     3.9041    27.8074 </r>
       <r>    -3.5932     3.4640    28.0670 </r>
       <r>    -3.5222     2.9699    28.2949 </r>
       <r>    -3.4513     2.5343    28.4899 </r>
       <r>    -3.3803     2.0675    28.6533 </r>
       <r>    -3.3093     1.9570    28.7941 </r>
       <r>    -3.2383     1.9275    28.9321 </r>
       <r>    -3.1674     1.8811    29.0671 </r>
       <r>    -3.0964     1.8303    29.1991 </r>
       <r>    -3.0254     1.7759    29.3271 </r>
       <r>    -2.9545     1.8123    29.4539 </r>
       <r>    -2.8835     1.6448    29.5783 </r>
       <r>    -2.8125     1.2940    29.6831 </r>
       <r>    -2.7415     1.1158    29.7685 </r>
       <r>    -2.6706     0.9292    29.8411 </r>
       <r>    -2.5996     0.7140    29.8988 </r>
       <r>    -2.5286     0.6809    29.9506 </r>
       <r>    -2.4576     0.3205    29.9855 </r>
       <r>    -2.3867     0.0711    29.9986 </r>
       <r>    -2.3157     0.0000    30.0000 </r>
       <r>    -2.2447     0.0000    30.0000 </r>
       <r>    -2.1737     0.0000    30.0000 </r>
       <r>    -2.1028     0.0000    30.0000 </r>
       <r>    -2.0318     0.0000    30.0000 </r>
       <r>    -1.9608     0.0000    30.0000 </r>
       <r>    -1.8899     0.0000    30.0000 </r>
       <r>    -1.8189     0.0000    30.0000 </r>
       <r>    -1.7479     0.0000    30.0000 </r>
       <r>    -1.6769     0.0000    30.0000 </r>
       <r>    -1.6060     0.0000    30.0000 </r>
       <r>    -1.5350     0.0000    30.0000 </r>
       <r>    -1.4640     0.0000    30.0000 </r>
       <r>    -1.3930     0.0000    30.0000 </r>
       <r>    -1.3221     0.0000    30.0000 </r>
       <r>    -1.2511     0.0000    30.0000 </r>
       <r>    -1.1801     0.0000    30.0000 </r>
       <r>    -1.1091     0.0000    30.0000 </r>
       <r>    -1.0382     0.0000    30.0000 </r>
       <r>    -0.9672     0.0000    30.0000 </r>
       <r>    -0.8962     0.0000    30.0000 </r>
       <r>    -0.8253     0.0000    30.0000 </r>
       <r>    -0.7543     0.0000    30.0000 </r>
       <r>    -0.6833     0.0000    30.0000 </r>
       <r>    -0.6123     0.0000    30.0000 </r>
       <r>    -0.5414     0.0000    30.0000 </r>
       <r>    -0.4704     0.0000    30.0000 </r>
       <r>    -0.3994     0.0000    30.0000 </r>
       <r>    -0.3284     0.0000    30.0000 </r>
       <r>    -0.2575     0.0000    30.0000 </r>
       <r>    -0.1865     0.0000    30.0000 </r>
       <r>    -0.1155     0.0000    30.0000 </r>
       <r>    -0.0445     0.0000    30.0000 </r>
       <r>     0.0264     0.0000    30.0000 </r>
       <r>     0.0974     0.0000    30.0000 </r>
       <r>     0.1684     0.0000    30.0000 </r>
       <r>     0.2393     0.0000    30.0000 </r>
       <r>     0.3103     0.0000    30.0000 </r>
       <r>     0.3813     0.0000    30.0000 </r>
       <r>     0.4523     3.0753    30.0441 </r>
       <r>     0.5232     2.0671    30.1800 </r>
       <r>     0.5942     3.9528    30.4131 </r>
       <r>     0.6652     4.3583    30.7133 </r>
       <r>     0.7362     6.7329    31.0810 </r>
       <r>     0.8071     7.6265    31.5868 </r>
       <r>     0.8781     5.3639    32.1409 </r>
       <r>     0.9491     6.4145    32.5575 </r>
       <r>     1.0201     6.3494    33.0370 </r>
       <r>     1.0910     4.2188    33.3947 </r>
       <r>     1.1620     6.3909    33.6782 </r>
       <r>     1.2330     5.9975    34.1889 </r>
       <r>     1.3039     6.1619    34.7311 </r>
       <r>     1.3749     9.7904    35.2769 </r>
       <r>     1.4459     9.0238    35.9248 </r>
       <r>     1.5169    10.0321    36.6074 </r>
       <r>     1.5878     9.1278    37.2601 </r>
       <r>     1.6588    10.5662    37.9517 </r>
       <r>     1.7298    13.5943    38.8236 </r>
       <r>     1.8008    12.6322    39.7179 </r>
       <r>     1.8717    14.0681    40.6547 </r>
       <r>     1.9427    13.1846    41.6380 </r>
       <r>     2.0137    13.2513    42.5617 </r>
       <r>     2.0847    13.6953    43.5215 </r>
       <r>     2.1556    13.7200    44.5188 </r>
       <r>     2.2266    13.3891    45.4824 </r>
       <r>     2.2976    12.9944    46.4206 </r>
       <r>     2.3685    18.4463    47.4107 </r>
       <r>     2.4395    16.7078    48.6573 </r>
       <r>     2.5105    16.4587    49.8887 </r>
       <r>     2.5815    15.0669    50.9871 </r>
       <r>     2.6524    14.6856    52.0550 </r>
       <r>     2.7234    15.3913    53.1822 </r>
       <r>     2.7944    13.5313    54.2159 </r>
       <r>     2.8654    12.5078    55.1317 </r>
       <r>     2.9363    12.4762    56.0261 </r>
       <r>     3.0073    12.8516    56.9395 </r>
       <r>     3.0783    11.0800    57.7928 </r>
       <r>     3.1493    12.5594    58.6509 </r>
       <r>     3.2202    12.8031    59.5582 </r>
       <r>     3.2912    11.7388    60.4336 </r>
       <r>     3.3622    12.3187    61.2888 </r>
       <r>     3.4331    11.1427    62.0993 </r>
       <r>     3.5041    12.6784    62.9424 </r>
       <r>     3.5751    14.3984    63.9111 </r>
       <r>     3.6461    11.0570    64.8594 </r>
       <r>     3.7170     8.7952    65.5431 </r>
       <r>     3.7880    10.4479    66.1866 </r>
       <r>     3.8590    16.0916    67.1870 </r>
       <r>     3.9300    11.7711    68.2643 </r>
       <r>     4.0009     8.3797    68.9959 </r>
       <r>     4.0719     9.9731    69.6374 </r>
       <r>     4.1429    12.1501    70.4216 </r>
       <r>     4.2139    11.9098    71.2583 </r>
       <r>     4.2848     8.3773    71.8863 </r>
       <r>     4.3558    10.4893    72.5180 </r>
       <r>     4.4268    17.1163    73.5442 </r>
       <r>     4.4977    17.5016    74.9158 </r>
       <r>     4.5687    16.4513    76.0971 </r>
       <r>     4.6397    14.4285    77.1107 </r>
       <r>     4.7107    16.7306    78.3041 </r>
       <r>     4.7816    16.6890    79.4827 </r>
       <r>     4.8526    15.8430    80.7244 </r>
       <r>     4.9236    12.9020    81.8279 </r>
       <r>     4.9946    11.8514    82.7024 </r>
       <r>     5.0655     4.0507    83.4801 </r>
       <r>     5.1365     2.3694    83.6922 </r>
       <r>     5.2075     1.6617    83.8343 </r>
       <r>     5.2785     1.1039    83.9300 </r>
       <r>     5.3494     0.3832    83.9828 </r>
       <r>     5.4204     0.0856    83.9982 </r>
       <r>     5.4914     0.0000    84.0000 </r>
       <r>     5.5623     0.0000    84.0000 </r>
       <r>     5.6333     0.0000    84.0000 </r>
       <r>     5.7043     0.0000    84.0000 </r>
       <r>     5.7753     0.0185    84.0003 </r>
       <r>     5.8462     0.1126    84.0045 </r>
       <r>     5.9172     0.2871    84.0182 </r>
       <r>     5.9882     0.5773    84.0480 </r>
       <r>     6.0592     0.9204    84.1014 </r>
       <r>     6.1301     1.2531    84.1781 </r>
       <r>     6.2011     2.0814    84.2917 </r>
       <r>     6.2721     4.7884    84.5262 </r>
       <r>     6.3431     6.0812    84.9295 </r>
       <r>     6.4140     6.4713    85.3745 </r>
       <r>     6.4850     8.0924    85.8740 </r>
       <r>     6.5560    11.6221    86.5636 </r>
       <r>     6.6269    21.1665    87.7621 </r>
       <r>     6.6979    19.8812    89.0785 </r>
       <r>     6.7689    13.0817    90.3872 </r>
       <r>     6.8399    14.0471    91.3682 </r>
       <r>     6.9108    14.9652    92.4188 </r>
       <r>     6.9818    14.2168    93.5205 </r>
       <r>     7.0528    10.0387    94.3008 </r>
       <r>     7.1238    11.1755    95.0507 </r>
       <r>     7.1947     9.1463    95.7552 </r>
       <r>     7.2657    11.5654    96.4590 </r>
       <r>     7.3367    14.0294    97.4331 </r>
       <r>     7.4077    12.5780    98.3851 </r>
       <r>     7.4786    10.7235    99.2069 </r>
       <r>     7.5496     9.6623    99.9419 </r>
       <r>     7.6206     6.9655   100.5030 </r>
       <r>     7.6915     6.1798   100.9779 </r>
       <r>     7.7625     8.5650   101.4926 </r>
       <r>     7.8335     8.8520   102.1112 </r>
       <r>     7.9045     9.0257   102.7514 </r>
       <r>     7.9754     9.3489   103.4011 </r>
       <r>     8.0464     9.2993   104.0648 </r>
       <r>     8.1174     8.7618   104.7054 </r>
       <r>     8.1884     9.6973   105.3583 </r>
       <r>     8.2593     9.1289   106.0279 </r>
       <r>     8.3303    10.7162   106.7413 </r>
       <r>     8.4013     9.5850   107.4687 </r>
       <r>     8.4723     7.7257   108.0874 </r>
       <r>     8.5432     6.5397   108.5869 </r>
       <r>     8.6142     6.0670   109.0289 </r>
       <r>     8.6852     6.3304   109.4622 </r>
       <r>     8.7561     7.0751   109.9386 </r>
       <r>     8.8271     8.7782   110.4997 </r>
       <r>     8.8981     4.8572   110.9365 </r>
       <r>     8.9691     3.4931   111.2314 </r>
       <r>     9.0400     2.5032   111.4389 </r>
       <r>     9.1110     2.2402   111.6059 </r>
       <r>     9.1820     1.8269   111.7533 </r>
       <r>     9.2530     1.2843   111.8634 </r>
       <r>     9.3239     0.7316   111.9343 </r>
       <r>     9.3949     0.3969   111.9737 </r>
       <r>     9.4659     0.1637   111.9930 </r>
       <r>     9.5369     0.0322   111.9994 </r>
       <r>     9.6078     0.0000   112.0000 </r>
       <r>     9.6788     0.0000   112.0000 </r>
       <r>     9.7498     0.0000   112.0000 </r>
       <r>     9.8207     0.0000   112.0000 </r>
       <r>     9.8917     0.0000   112.0000 </r>
       <r>     9.9627     0.0000   112.0000 </r>
       <r>    10.0337     0.0000   112.0000 </r>
       <r>    10.1046     0.0000   112.0000 </r>
       <r>    10.1756     0.0000   112.0000 </r>
       <r>    10.2466     0.0000   112.0000 </r>
       <r>    10.3176     0.0000   112.0000 </r>
       <r>    10.3885     0.0000   112.0000 </r>
       <r>    10.4595     0.0000   112.0000 </r>
       <r>    10.5305     0.0000   112.0000 </r>
       <r>    10.6015     0.0000   112.0000 </r>
       <r>    10.6724     0.0000   112.0000 </r>
       <r>    10.7434     0.0000   112.0000 </r>
       <r>    10.8144     0.0000   112.0000 </r>
       <r>    10.8853     0.0000   112.0000 </r>
       <r>    10.9563     0.0000   112.0000 </r>
       <r>    11.0273     0.0000   112.0000 </r>
       <r>    11.0983     0.0000   112.0000 </r>
       <r>    11.1692     0.0000   112.0000 </r>
       <r>    11.2402     0.0000   112.0000 </r>
       <r>    11.3112     0.0000   112.0000 </r>
       <r>    11.3822     0.0000   112.0000 </r>
       <r>    11.4531     0.0000   112.0000 </r>
       <r>    11.5241     0.0000   112.0000 </r>
       <r>    11.5951     0.0000   112.0000 </r>
      </set>
     </set>
    </array>
   </total>
  </dos>
 </calculation>
 <structure name="finalpos" >
  <crystal>
   <varray name="basis" >
    <v>       2.21667734      -3.83939778       0.00000000 </v>
    <v>       2.21667734       3.83939778       0.00000000 </v>
    <v>       0.00000000       0.00000000      30.42555831 </v>
   </varray>
   <i name="volume">    517.88596730 </i>
   <varray name="rec_basis" >
    <v>       0.22556282      -0.13022876       0.00000000 </v>
    <v>       0.22556282       0.13022876      -0.00000000 </v>
    <v>      -0.00000000       0.00000000       0.03286710 </v>
   </varray>
  </crystal>
  <varray name="positions" >
   <v>       0.33333333       0.66666667       0.06646499 </v>
   <v>       0.33333333       0.66666667       0.26686834 </v>
   <v>       0.00000000       0.00000000       0.39979833 </v>
   <v>       0.00000000       0.00000000       0.60020167 </v>
   <v>       0.66666667       0.33333333       0.73313166 </v>
   <v>       0.66666667       0.33333333       0.93353501 </v>
   <v>       0.00000000       0.00000000       0.00000000 </v>
   <v>       0.00000000       0.00000000       0.20982848 </v>
   <v>       0.66666667       0.33333333       0.12284751 </v>
   <v>       0.66666667       0.33333333       0.33333333 </v>
   <v>       0.66666667       0.33333333       0.54381916 </v>
   <v>       0.33333333       0.66666667       0.45618084 </v>
   <v>       0.33333333       0.66666667       0.66666667 </v>
   <v>       0.33333333       0.66666667       0.87715249 </v>
   <v>       0.00000000       0.00000000       0.78951418 </v>
  </varray>
 </structure>
</modeling>
