 vasp.5.4.4.18Apr17-6-g9f103f2a35 (build Mar 20 2018 18:01:20) complex           
 executed on             LinuxGNU date 2020.07.13  19:24:31
 running on    8 total cores
 distrk:  each k-point on    8 cores,    1 groups
 distr:  one band on NCORES_PER_BAND=   2 cores,    4 groups


--------------------------------------------------------------------------------------------------------


 INCAR:
 POTCAR:    PAW_PBE Sn_d 06Sep2000                
 POTCAR:    PAW_PBE Se 06Sep2000                  
 POTCAR:    PAW_PBE Sn_d 06Sep2000                
   VRHFIN =Sn: s2p2                                                             
   LEXCH  = PE                                                                  
   EATOM  =  1893.1092 eV,  139.1396 Ry                                         
                                                                                
   TITEL  = PAW_PBE Sn_d 06Sep2000                                              
   LULTRA =        F    use ultrasoft PP ?                                      
   IUNSCR =        1    unscreen: 0-lin 1-nonlin 2-no                           
   RPACOR =    2.300    partial core radius                                     
   POMASS =  118.710; ZVAL   =   14.000    mass and valenz                      
   RCORE  =    2.500    outmost cutoff radius                                   
   RWIGS  =    2.960; RWIGS  =    1.566    wigner-seitz radius (au A)           
   ENMAX  =  241.083; ENMIN  =  180.812 eV                                      
   ICORE  =        3    local potential                                         
   LCOR   =        T    correct aug charges                                     
   LPAW   =        T    paw PP                                                  
   EAUG   =  439.825                                                            
   DEXC   =    0.000                                                            
   RMAX   =    2.560    core radius for proj-oper                               
   RAUG   =    1.300    factor for augmentation sphere                          
   RDEP   =    2.659    radius for radial grids                                 
   RDEPT  =    2.046    core radius for aug-charge                              
                                                                                
   Atomic configuration                                                         
   12 entries                                                                   
     n  l   j            E        occ.                                          
     1  0  0.50    -29007.2859   2.0000                                         
     2  0  0.50     -4378.8056   2.0000                                         
     2  1  1.50     -3930.4293   6.0000                                         
     3  0  0.50      -845.0264   2.0000                                         
     3  1  1.50      -698.5725   6.0000                                         
     3  2  2.50      -473.2839  10.0000                                         
     4  0  0.50      -133.9036   2.0000                                         
     4  1  1.50       -89.6752   6.0000                                         
     4  2  2.50       -25.8375  10.0000                                         
     5  0  0.50       -10.5484   2.0000                                         
     5  1  0.50        -3.6940   2.0000                                         
     4  3  2.50        -2.7416   0.0000                                         
   Description                                                                  
     l       E           TYP  RCUT    TYP  RCUT                                 
     2    -25.8374624     23  2.500                                             
     2     -5.4423304     23  2.500                                             
     0    -10.5483727     23  2.500                                             
     0     13.6058260     23  2.500                                             
     1     -3.6939829     23  2.500                                             
     1      1.9821976     23  2.500                                             
     3     -1.3605826      7  2.500                                             
  local pseudopotential read in
  partial core-charges read in
  partial kinetic energy density read in
  atomic valenz-charges read in
  non local Contribution for L=           2  read in
    real space projection operators read in
  non local Contribution for L=           2  read in
    real space projection operators read in
  non local Contribution for L=           0  read in
    real space projection operators read in
  non local Contribution for L=           0  read in
    real space projection operators read in
  non local Contribution for L=           1  read in
    real space projection operators read in
  non local Contribution for L=           1  read in
    real space projection operators read in
    PAW grid and wavefunctions read in

   number of l-projection  operators is LMAX  =           6
   number of lm-projection operators is LMMAX =          18

 POTCAR:    PAW_PBE Se 06Sep2000                  
   VRHFIN =Se: s2p4                                                             
   LEXCH  = PE                                                                  
   EATOM  =   257.1286 eV,   18.8984 Ry                                         
                                                                                
   TITEL  = PAW_PBE Se 06Sep2000                                                
   LULTRA =        F    use ultrasoft PP ?                                      
   IUNSCR =        1    unscreen: 0-lin 1-nonlin 2-no                           
   RPACOR =    1.900    partial core radius                                     
   POMASS =   78.960; ZVAL   =    6.000    mass and valenz                      
   RCORE  =    2.100    outmost cutoff radius                                   
   RWIGS  =    2.200; RWIGS  =    1.164    wigner-seitz radius (au A)           
   ENMAX  =  211.555; ENMIN  =  158.666 eV                                      
   ICORE  =        3    local potential                                         
   LCOR   =        T    correct aug charges                                     
   LPAW   =        T    paw PP                                                  
   EAUG   =  446.842                                                            
   DEXC   =    0.000                                                            
   RMAX   =    2.147    core radius for proj-oper                               
   RAUG   =    1.300    factor for augmentation sphere                          
   RDEP   =    2.177    radius for radial grids                                 
   RDEPT  =    1.928    core radius for aug-charge                              
                                                                                
   Atomic configuration                                                         
   10 entries                                                                   
     n  l   j            E        occ.                                          
     1  0  0.50    -12503.4787   2.0000                                         
     2  0  0.50     -1606.9547   2.0000                                         
     2  1  1.50     -1413.3140   6.0000                                         
     3  0  0.50      -213.4885   2.0000                                         
     3  1  1.50      -152.9538   6.0000                                         
     3  2  2.50       -53.1221  10.0000                                         
     4  0  0.50       -17.2865   2.0000                                         
     4  1  0.50        -6.5110   4.0000                                         
     4  2  2.50        -6.8029   0.0000                                         
     4  3  2.50        -6.8029   0.0000                                         
   Description                                                                  
     l       E           TYP  RCUT    TYP  RCUT                                 
     0    -17.2865377     23  2.100                                             
     0    -15.3094411     23  2.100                                             
     1     -6.5110275     23  2.100                                             
     1     -0.0695192     23  2.100                                             
     2     -6.8029130     23  2.100                                             
     3     -1.3605826      7  2.100                                             
  local pseudopotential read in
  partial core-charges read in
  partial kinetic energy density read in
  atomic valenz-charges read in
  non local Contribution for L=           0  read in
    real space projection operators read in
  non local Contribution for L=           0  read in
    real space projection operators read in
  non local Contribution for L=           1  read in
    real space projection operators read in
  non local Contribution for L=           1  read in
    real space projection operators read in
  non local Contribution for L=           2  read in
    real space projection operators read in
    PAW grid and wavefunctions read in

   number of l-projection  operators is LMAX  =           5
   number of lm-projection operators is LMMAX =          13

  PAW_PBE Sn_d 06Sep2000                :
 energy of atom  1       EATOM=-1893.1092
 kinetic energy error for atom=    0.0010 (will be added to EATOM!!)
  PAW_PBE Se 06Sep2000                  :
 energy of atom  2       EATOM= -257.1286
 kinetic energy error for atom=    0.0006 (will be added to EATOM!!)


 POSCAR: Sn4 Se4                                 
  positions in direct lattice
  No initial velocities read in
 exchange correlation table for  LEXCH =        8
   RHO(1)=    0.500       N(1)  =     2000
   RHO(2)=  100.500       N(2)  =     4000



--------------------------------------------------------------------------------------------------------


 ion  position               nearest neighbor table
   1  0.250  0.113  0.117-   7 2.79   5 2.80   5 2.80   2 3.57   2 3.57
   2  0.750  0.887  0.883-   8 2.79   6 2.80   6 2.80   1 3.57   1 3.57
   3  0.750  0.613  0.383-   5 2.79   7 2.80   7 2.80   4 3.57   4 3.57
   4  0.250  0.387  0.617-   6 2.79   8 2.80   8 2.80   3 3.57   3 3.57
   5  0.750  0.519  0.145-   3 2.79   1 2.80   1 2.80
   6  0.250  0.481  0.855-   4 2.79   2 2.80   2 2.80
   7  0.250  0.019  0.355-   1 2.79   3 2.80   3 2.80
   8  0.750  0.981  0.645-   2 2.79   4 2.80   4 2.80

  LATTYP: Found a simple orthorhombic cell.
 ALAT       =     4.1703697400
 B/A-ratio  =     1.0901743043
 C/A-ratio  =     2.7768711990
  
  Lattice vectors:
  
 A1 = (   4.1703697400,   0.0000000000,   0.0000000000)
 A2 = (   0.0000000000,   4.5464299300,   0.0000000000)
 A3 = (   0.0000000000,   0.0000000000,  11.5805796200)


Analysis of symmetry for initial positions (statically):
=====================================================================
 Subroutine PRICEL returns:
 Original cell was already a primitive cell.
 

 Routine SETGRP: Setting up the symmetry group for a 
 simple orthorhombic supercell.


 Subroutine GETGRP returns: Found  8 space group operations
 (whereof  2 operations were pure point group operations)
 out of a pool of  8 trial point group operations.


The static configuration has the point symmetry S_2 .
 The point group associated with its full space group is D_2h.


Analysis of symmetry for dynamics (positions and initial velocities):
=====================================================================
 Subroutine PRICEL returns:
 Original cell was already a primitive cell.
 

 Routine SETGRP: Setting up the symmetry group for a 
 simple orthorhombic supercell.


 Subroutine GETGRP returns: Found  8 space group operations
 (whereof  2 operations were pure point group operations)
 out of a pool of  8 trial point group operations.


The dynamic configuration has the point symmetry S_2 .
 The point group associated with its full space group is D_2h.


 Subroutine INISYM returns: Found  8 space group operations
 (whereof  2 operations are pure point group operations),
 and found     1 'primitive' translations



 KPOINTS: Non SCF run along symmetry lines        
  k-points in reciprocal lattice
Space group operators:
 irot       det(A)        alpha          n_x          n_y          n_z        tau_x        tau_y        tau_z
    1     1.000000     0.000001     1.000000     0.000000     0.000000     0.000000     0.000000     0.000000
    2    -1.000000     0.000001     1.000000     0.000000     0.000000     0.000000     0.000000     0.000000
    3     1.000000   179.999999     0.000000     0.000000     1.000000     0.500000     0.500000     0.500000
    4    -1.000000   179.999999     0.000000     0.000000     1.000000     0.500000     0.500000     0.500000
    5     1.000000   180.000000     0.000000     1.000000     0.000000     0.000000     0.500000     0.500000
    6    -1.000000   180.000000     0.000000     1.000000     0.000000     0.000000     0.500000     0.500000
    7     1.000000   180.000000     1.000000     0.000000     0.000000     0.500000     0.000000     0.000000
    8    -1.000000   180.000000     1.000000     0.000000     0.000000     0.500000     0.000000     0.000000


--------------------------------------------------------------------------------------------------------




 Dimension of arrays:
   k-points           NKPTS =    224   k-points in BZ     NKDIM =    224   number of bands    NBANDS=     96
   number of dos      NEDOS =    301   number of ions     NIONS =      8
   non local maximal  LDIM  =      6   non local SUM 2l+1 LMDIM =     18
   total plane-waves  NPLWV = 124416
   max r-space proj   IRMAX =      1   max aug-charges    IRDMAX= 202613
   dimension x,y,z NGX =    36 NGY =   36 NGZ =   96
   dimension x,y,z NGXF=    72 NGYF=   72 NGZF=  192
   support grid    NGXF=   144 NGYF=  144 NGZF=  384
   ions per type =               4   4
   NGX,Y,Z   is equivalent  to a cutoff of  14.35, 13.16, 13.78 a.u.
   NGXF,Y,Z  is equivalent  to a cutoff of  28.70, 26.33, 27.56 a.u.

 SYSTEM =  SnSe                                    
 POSCAR =  Sn4 Se4                                 

 Startparameter for this run:
   NWRITE =      2    write-flag & timer
   PREC   = accura    normal or accurate (medium, high low for compatibility)
   ISTART =      0    job   : 0-new  1-cont  2-samecut
   ICHARG =     11    charge: 1-file 2-atom 10-const
   ISPIN  =      1    spin polarized calculation?
   LNONCOLLINEAR =      F non collinear calculations
   LSORBIT =      F    spin-orbit coupling
   INIWAV =      1    electr: 0-lowe 1-rand  2-diag
   LASPH  =      F    aspherical Exc in radial PAW
   METAGGA=      F    non-selfconsistent MetaGGA calc.

 Electronic Relaxation 1
   ENCUT  =  600.0 eV  44.10 Ry    6.64 a.u.   8.33  9.08 23.13*2*pi/ulx,y,z
   ENINI  =  600.0     initial cutoff
   ENAUG  =  446.8 eV  augmentation charge cutoff
   NELM   =     60;   NELMIN=  2; NELMDL=  0     # of ELM steps 
   EDIFF  = 0.1E-06   stopping-criterion for ELM
   LREAL  =      F    real-space projection
   NLSPLINE    = F    spline interpolate recip. space projectors
   LCOMPAT=      F    compatible to vasp.4.4
   GGA_COMPAT  = T    GGA compatible to vasp.4.4-vasp.4.6
   LMAXPAW     = -100 max onsite density
   LMAXMIX     =    4 max onsite mixed and CHGCAR
   VOSKOWN=      0    Vosko Wilk Nusair interpolation
   ROPT   =    0.00000   0.00000
 Ionic relaxation
   EDIFFG = -.1E-02   stopping-criterion for IOM
   NSW    =      0    number of steps for IOM
   NBLOCK =      1;   KBLOCK =      1    inner block; outer block 
   IBRION =     -1    ionic relax: 0-MD 1-quasi-New 2-CG
   NFREE  =      0    steps in history (QN), initial steepest desc. (CG)
   ISIF   =      2    stress and relaxation
   IWAVPR =     10    prediction:  0-non 1-charg 2-wave 3-comb
   ISYM   =      2    0-nonsym 1-usesym 2-fastsym
   LCORR  =      T    Harris-Foulkes like correction to forces

   POTIM  = 0.5000    time-step for ionic-motion
   TEIN   =    0.0    initial temperature
   TEBEG  =    0.0;   TEEND  =   0.0 temperature during run
   SMASS  =  -3.00    Nose mass-parameter (am)
   estimated Nose-frequenzy (Omega)   =  0.10E-29 period in steps =****** mass=  -0.397E-27a.u.
   SCALEE = 1.0000    scale energy and forces
   NPACO  =    256;   APACO  = 16.0  distance and # of slots for P.C.
   PSTRESS=    0.0 pullay stress

  Mass of Ions in am
   POMASS = 118.71 78.96
  Ionic Valenz
   ZVAL   =  14.00  6.00
  Atomic Wigner-Seitz radii
   RWIGS  =  -1.00 -1.00
  virtual crystal weights 
   VCA    =   1.00  1.00
   NELECT =      80.0000    total number of electrons
   NUPDOWN=      -1.0000    fix difference up-down

 DOS related values:
   EMIN   =  10.00;   EMAX   =-10.00  energy-range for DOS
   EFERMI =   0.00
   ISMEAR =     0;   SIGMA  =   0.01  broadening in eV -4-tet -1-fermi 0-gaus

 Electronic relaxation 2 (details)
   IALGO  =     58    algorithm
   LDIAG  =      T    sub-space diagonalisation (order eigenvalues)
   LSUBROT=      F    optimize rotation matrix (better conditioning)
   TURBO    =      0    0=normal 1=particle mesh
   IRESTART =      0    0=no restart 2=restart with 2 vectors
   NREBOOT  =      0    no. of reboots
   NMIN     =      0    reboot dimension
   EREF     =   0.00    reference energy to select bands
   IMIX   =      4    mixing-type and parameters
     AMIX     =   0.40;   BMIX     =  1.00
     AMIX_MAG =   1.60;   BMIX_MAG =  1.00
     AMIN     =   0.10
     WC   =   100.;   INIMIX=   1;  MIXPRE=   1;  MAXMIX= -45

 Intra band minimization:
   WEIMIN = 0.0000     energy-eigenvalue tresh-hold
   EBREAK =  0.26E-09  absolut break condition
   DEPER  =   0.30     relativ break condition  

   TIME   =   0.40     timestep for ELM

  volume/ion in A,a.u.               =      27.45       185.22
  Fermi-wavevector in a.u.,A,eV,Ry     =   1.169265  2.209591 18.601630  1.367181
  Thomas-Fermi vector in A             =   2.305740

 Write flags
   LWAVE        =      F    write WAVECAR
   LDOWNSAMPLE  =      F    k-point downsampling of WAVECAR
   LCHARG       =      F    write CHGCAR
   LVTOT        =      F    write LOCPOT, total local potential
   LVHAR        =      F    write LOCPOT, Hartree potential only
   LELF         =      F    write electronic localiz. function (ELF)
   LORBIT       =      0    0 simple, 1 ext, 2 COOP (PROOUT), +10 PAW based schemes


 Dipole corrections
   LMONO  =      F    monopole corrections only (constant potential shift)
   LDIPOL =      F    correct potential (dipole corrections)
   IDIPOL =      0    1-x, 2-y, 3-z, 4-all directions 
   EPSILON=  1.0000000 bulk dielectric constant

 Exchange correlation treatment:
   GGA     =    --    GGA type
   LEXCH   =     8    internal setting for exchange type
   VOSKOWN=      0    Vosko Wilk Nusair interpolation
   LHFCALC =     F    Hartree Fock is set to
   LHFONE  =     F    Hartree Fock one center treatment
   AEXX    =    0.0000 exact exchange contribution

 Linear response parameters
   LEPSILON=     F    determine dielectric tensor
   LRPA    =     F    only Hartree local field effects (RPA)
   LNABLA  =     F    use nabla operator in PAW spheres
   LVEL    =     F    velocity operator in full k-point grid
   LINTERFAST=   F  fast interpolation
   KINTER  =     0    interpolate to denser k-point grid
   CSHIFT  =0.1000    complex shift for real part using Kramers Kronig
   OMEGAMAX=  -1.0    maximum frequency
   DEG_THRESHOLD= 0.2000000E-02 threshold for treating states as degnerate
   RTIME   =   -0.100 relaxation time in fs
  (WPLASMAI=    0.000 imaginary part of plasma frequency in eV, 0.658/RTIME)
   DFIELD  = 0.0000000 0.0000000 0.0000000 field for delta impulse in time

 Orbital magnetization related:
   ORBITALMAG=     F  switch on orbital magnetization
   LCHIMAG   =     F  perturbation theory with respect to B field
   DQ        =  0.001000  dq finite difference perturbation B field
   LLRAUG    =     F  two centre corrections for induced B field



--------------------------------------------------------------------------------------------------------


 Static calculation
 charge density and potential remain constant during run
 non-spin polarized calculation
 Conjugate gradient for all bands (Freysoldt, et al. PRB 79, 241103 (2009))
 preconditioned conjugated gradient   charged. constant during bandupdate  
 perform sub-space diagonalisation
    before iterative eigenvector-optimisation
 no mixing
 using additional bands           56
 reciprocal scheme for non local part
 use partial core corrections
 calculate Harris-corrections to forces   (improved forces if not selfconsistent)
 use gradient corrections 
 WARNING: stress and forces are not correct
  (second derivative of E(xc) not defined)
 use of overlap-Matrix (Vanderbilt PP)
 Gauss-broadening in eV      SIGMA  =   0.01


--------------------------------------------------------------------------------------------------------


  energy-cutoff  :      600.00
  volume of cell :      219.57
      direct lattice vectors                 reciprocal lattice vectors
     4.170369740  0.000000000  0.000000000     0.239786892  0.000000000  0.000000000
     0.000000000  4.546429930  0.000000000     0.000000000  0.219952802  0.000000000
     0.000000000  0.000000000 11.580579620     0.000000000  0.000000000  0.086351464

  length of vectors
     4.170369740  4.546429930 11.580579620     0.239786892  0.219952802  0.086351464



 k-points in units of 2pi/SCALE and weight: Non SCF run along symmetry lines        
   0.00000000  0.00000000  0.00000000       0.004
   0.00521276  0.00000000  0.00000000       0.004
   0.01042552  0.00000000  0.00000000       0.004
   0.01563828  0.00000000  0.00000000       0.004
   0.02085103  0.00000000  0.00000000       0.004
   0.02606379  0.00000000  0.00000000       0.004
   0.03127655  0.00000000  0.00000000       0.004
   0.03648931  0.00000000  0.00000000       0.004
   0.04170207  0.00000000  0.00000000       0.004
   0.04691483  0.00000000  0.00000000       0.004
   0.05212759  0.00000000  0.00000000       0.004
   0.05734034  0.00000000  0.00000000       0.004
   0.06255310  0.00000000  0.00000000       0.004
   0.06776586  0.00000000  0.00000000       0.004
   0.07297862  0.00000000  0.00000000       0.004
   0.07819138  0.00000000  0.00000000       0.004
   0.08340414  0.00000000  0.00000000       0.004
   0.08861690  0.00000000  0.00000000       0.004
   0.09382965  0.00000000  0.00000000       0.004
   0.09904241  0.00000000  0.00000000       0.004
   0.10425517  0.00000000  0.00000000       0.004
   0.10946793  0.00000000  0.00000000       0.004
   0.11468069  0.00000000  0.00000000       0.004
   0.11989345  0.00000000  0.00000000       0.004
   0.11989345  0.00000000  0.00000000       0.004
   0.11989345  0.00523697  0.00000000       0.004
   0.11989345  0.01047394  0.00000000       0.004
   0.11989345  0.01571091  0.00000000       0.004
   0.11989345  0.02094789  0.00000000       0.004
   0.11989345  0.02618486  0.00000000       0.004
   0.11989345  0.03142183  0.00000000       0.004
   0.11989345  0.03665880  0.00000000       0.004
   0.11989345  0.04189577  0.00000000       0.004
   0.11989345  0.04713274  0.00000000       0.004
   0.11989345  0.05236971  0.00000000       0.004
   0.11989345  0.05760669  0.00000000       0.004
   0.11989345  0.06284366  0.00000000       0.004
   0.11989345  0.06808063  0.00000000       0.004
   0.11989345  0.07331760  0.00000000       0.004
   0.11989345  0.07855457  0.00000000       0.004
   0.11989345  0.08379154  0.00000000       0.004
   0.11989345  0.08902851  0.00000000       0.004
   0.11989345  0.09426549  0.00000000       0.004
   0.11989345  0.09950246  0.00000000       0.004
   0.11989345  0.10473943  0.00000000       0.004
   0.11989345  0.10997640  0.00000000       0.004
   0.11989345  0.10997640  0.00000000       0.004
   0.11468069  0.10997640  0.00000000       0.004
   0.10946793  0.10997640  0.00000000       0.004
   0.10425517  0.10997640  0.00000000       0.004
   0.09904241  0.10997640  0.00000000       0.004
   0.09382965  0.10997640  0.00000000       0.004
   0.08861690  0.10997640  0.00000000       0.004
   0.08340414  0.10997640  0.00000000       0.004
   0.07819138  0.10997640  0.00000000       0.004
   0.07297862  0.10997640  0.00000000       0.004
   0.06776586  0.10997640  0.00000000       0.004
   0.06255310  0.10997640  0.00000000       0.004
   0.05734034  0.10997640  0.00000000       0.004
   0.05212759  0.10997640  0.00000000       0.004
   0.04691483  0.10997640  0.00000000       0.004
   0.04170207  0.10997640  0.00000000       0.004
   0.03648931  0.10997640  0.00000000       0.004
   0.03127655  0.10997640  0.00000000       0.004
   0.02606379  0.10997640  0.00000000       0.004
   0.02085103  0.10997640  0.00000000       0.004
   0.01563828  0.10997640  0.00000000       0.004
   0.01042552  0.10997640  0.00000000       0.004
   0.00521276  0.10997640  0.00000000       0.004
   0.00000000  0.10997640  0.00000000       0.004
   0.00000000  0.10997640  0.00000000       0.004
   0.00000000  0.10473943  0.00000000       0.004
   0.00000000  0.09950246  0.00000000       0.004
   0.00000000  0.09426549  0.00000000       0.004
   0.00000000  0.08902851  0.00000000       0.004
   0.00000000  0.08379154  0.00000000       0.004
   0.00000000  0.07855457  0.00000000       0.004
   0.00000000  0.07331760  0.00000000       0.004
   0.00000000  0.06808063  0.00000000       0.004
   0.00000000  0.06284366  0.00000000       0.004
   0.00000000  0.05760669  0.00000000       0.004
   0.00000000  0.05236971  0.00000000       0.004
   0.00000000  0.04713274  0.00000000       0.004
   0.00000000  0.04189577  0.00000000       0.004
   0.00000000  0.03665880  0.00000000       0.004
   0.00000000  0.03142183  0.00000000       0.004
   0.00000000  0.02618486  0.00000000       0.004
   0.00000000  0.02094789  0.00000000       0.004
   0.00000000  0.01571091  0.00000000       0.004
   0.00000000  0.01047394  0.00000000       0.004
   0.00000000  0.00523697  0.00000000       0.004
   0.00000000  0.00000000  0.00000000       0.004
   0.00000000  0.00000000  0.00000000       0.004
   0.00000000  0.00000000  0.00479730       0.004
   0.00000000  0.00000000  0.00959461       0.004
   0.00000000  0.00000000  0.01439191       0.004
   0.00000000  0.00000000  0.01918921       0.004
   0.00000000  0.00000000  0.02398652       0.004
   0.00000000  0.00000000  0.02878382       0.004
  -0.00000000  0.00000000  0.03358112       0.004
   0.00000000  0.00000000  0.03837843       0.004
   0.00000000  0.00000000  0.04317573       0.004
   0.00000000  0.00000000  0.04317573       0.004
   0.00521276  0.00000000  0.04317573       0.004
   0.01042552 -0.00000000  0.04317573       0.004
   0.01563828  0.00000000  0.04317573       0.004
   0.02085103  0.00000000  0.04317573       0.004
   0.02606379  0.00000000  0.04317573       0.004
   0.03127655  0.00000000  0.04317573       0.004
   0.03648931  0.00000000  0.04317573       0.004
   0.04170207  0.00000000  0.04317573       0.004
   0.04691483  0.00000000  0.04317573       0.004
   0.05212759  0.00000000  0.04317573       0.004
   0.05734034  0.00000000  0.04317573       0.004
   0.06255310  0.00000000  0.04317573       0.004
   0.06776586  0.00000000  0.04317573       0.004
   0.07297862  0.00000000  0.04317573       0.004
   0.07819138 -0.00000000  0.04317573       0.004
   0.08340414 -0.00000000  0.04317573       0.004
   0.08861690  0.00000000  0.04317573       0.004
   0.09382965  0.00000000  0.04317573       0.004
   0.09904241 -0.00000000  0.04317573       0.004
   0.10425517  0.00000000  0.04317573       0.004
   0.10946793  0.00000000  0.04317573       0.004
   0.11468069  0.00000000  0.04317573       0.004
   0.11989345  0.00000000  0.04317573       0.004
   0.11989345  0.00000000  0.04317573       0.004
   0.11989345  0.00523697  0.04317573       0.004
   0.11989345  0.01047394  0.04317573       0.004
   0.11989345  0.01571091  0.04317573       0.004
   0.11989345  0.02094789  0.04317573       0.004
   0.11989345  0.02618486  0.04317573       0.004
   0.11989345  0.03142183  0.04317573       0.004
   0.11989345  0.03665880  0.04317573       0.004
   0.11989345  0.04189577  0.04317573       0.004
   0.11989345  0.04713274  0.04317573       0.004
   0.11989345  0.05236971  0.04317573       0.004
   0.11989345  0.05760669  0.04317573       0.004
   0.11989345  0.06284366  0.04317573       0.004
   0.11989345  0.06808063  0.04317573       0.004
   0.11989345  0.07331760  0.04317573       0.004
   0.11989345  0.07855457  0.04317573       0.004
   0.11989345  0.08379154  0.04317573       0.004
   0.11989345  0.08902851  0.04317573       0.004
   0.11989345  0.09426549  0.04317573       0.004
   0.11989345  0.09950246  0.04317573       0.004
   0.11989345  0.10473943  0.04317573       0.004
   0.11989345  0.10997640  0.04317573       0.004
   0.11989345  0.10997640  0.04317573       0.004
   0.11468069  0.10997640  0.04317573       0.004
   0.10946793  0.10997640  0.04317573       0.004
   0.10425517  0.10997640  0.04317573       0.004
   0.09904241  0.10997640  0.04317573       0.004
   0.09382965  0.10997640  0.04317573       0.004
   0.08861690  0.10997640  0.04317573       0.004
   0.08340414  0.10997640  0.04317573       0.004
   0.07819138  0.10997640  0.04317573       0.004
   0.07297862  0.10997640  0.04317573       0.004
   0.06776586  0.10997640  0.04317573       0.004
   0.06255310  0.10997640  0.04317573       0.004
   0.05734034  0.10997640  0.04317573       0.004
   0.05212759  0.10997640  0.04317573       0.004
   0.04691483  0.10997640  0.04317573       0.004
   0.04170207  0.10997640  0.04317573       0.004
   0.03648931  0.10997640  0.04317573       0.004
   0.03127655  0.10997640  0.04317573       0.004
   0.02606379  0.10997640  0.04317573       0.004
   0.02085103  0.10997640  0.04317573       0.004
   0.01563828  0.10997640  0.04317573       0.004
   0.01042552  0.10997640  0.04317573       0.004
   0.00521276  0.10997640  0.04317573       0.004
   0.00000000  0.10997640  0.04317573       0.004
   0.00000000  0.10997640  0.04317573       0.004
   0.00000000  0.10473943  0.04317573       0.004
   0.00000000  0.09950246  0.04317573       0.004
   0.00000000  0.09426549  0.04317573       0.004
   0.00000000  0.08902851  0.04317573       0.004
   0.00000000  0.08379154  0.04317573       0.004
   0.00000000  0.07855457  0.04317573       0.004
   0.00000000  0.07331760  0.04317573       0.004
   0.00000000  0.06808063  0.04317573       0.004
   0.00000000  0.06284366  0.04317573       0.004
   0.00000000  0.05760669  0.04317573       0.004
   0.00000000  0.05236971  0.04317573       0.004
   0.00000000  0.04713274  0.04317573       0.004
   0.00000000  0.04189577  0.04317573       0.004
   0.00000000  0.03665880  0.04317573       0.004
   0.00000000  0.03142183  0.04317573       0.004
   0.00000000  0.02618486  0.04317573       0.004
   0.00000000  0.02094789  0.04317573       0.004
   0.00000000  0.01571091  0.04317573       0.004
   0.00000000  0.01047394  0.04317573       0.004
   0.00000000  0.00523697  0.04317573       0.004
   0.00000000  0.00000000  0.04317573       0.004
   0.00000000  0.10997640  0.00000000       0.004
   0.00000000  0.10997640  0.00479730       0.004
   0.00000000  0.10997640  0.00959461       0.004
   0.00000000  0.10997640  0.01439191       0.004
   0.00000000  0.10997640  0.01918921       0.004
   0.00000000  0.10997640  0.02398652       0.004
   0.00000000  0.10997640  0.02878382       0.004
  -0.00000000  0.10997640  0.03358112       0.004
   0.00000000  0.10997640  0.03837843       0.004
   0.00000000  0.10997640  0.04317573       0.004
   0.11989345  0.00000000  0.04317573       0.004
   0.11989345 -0.00000000  0.03837843       0.004
   0.11989345 -0.00000000  0.03358112       0.004
   0.11989345  0.00000000  0.02878382       0.004
   0.11989345 -0.00000000  0.02398652       0.004
   0.11989345  0.00000000  0.01918921       0.004
   0.11989345  0.00000000  0.01439191       0.004
   0.11989345  0.00000000  0.00959461       0.004
   0.11989345 -0.00000000  0.00479730       0.004
   0.11989345  0.00000000  0.00000000       0.004
   0.11989345  0.10997640  0.00000000       0.004
   0.11989345  0.10997640  0.00479730       0.004
   0.11989345  0.10997640  0.00959461       0.004
   0.11989345  0.10997640  0.01439191       0.004
   0.11989345  0.10997640  0.01918921       0.004
   0.11989345  0.10997640  0.02398652       0.004
   0.11989345  0.10997640  0.02878382       0.004
   0.11989345  0.10997640  0.03358112       0.004
   0.11989345  0.10997640  0.03837843       0.004
   0.11989345  0.10997640  0.04317573       0.004

 k-points in reciprocal lattice and weights: Non SCF run along symmetry lines        
   0.00000000  0.00000000  0.00000000       0.004
   0.02173913  0.00000000  0.00000000       0.004
   0.04347826  0.00000000  0.00000000       0.004
   0.06521739  0.00000000  0.00000000       0.004
   0.08695652  0.00000000  0.00000000       0.004
   0.10869565  0.00000000  0.00000000       0.004
   0.13043478  0.00000000  0.00000000       0.004
   0.15217391  0.00000000  0.00000000       0.004
   0.17391304  0.00000000  0.00000000       0.004
   0.19565217  0.00000000  0.00000000       0.004
   0.21739130  0.00000000  0.00000000       0.004
   0.23913043  0.00000000  0.00000000       0.004
   0.26086957  0.00000000  0.00000000       0.004
   0.28260870  0.00000000  0.00000000       0.004
   0.30434783  0.00000000  0.00000000       0.004
   0.32608696  0.00000000  0.00000000       0.004
   0.34782609  0.00000000  0.00000000       0.004
   0.36956522  0.00000000  0.00000000       0.004
   0.39130435  0.00000000  0.00000000       0.004
   0.41304348  0.00000000  0.00000000       0.004
   0.43478261  0.00000000  0.00000000       0.004
   0.45652174  0.00000000  0.00000000       0.004
   0.47826087  0.00000000  0.00000000       0.004
   0.50000000  0.00000000  0.00000000       0.004
   0.50000000  0.00000000  0.00000000       0.004
   0.50000000  0.02380952  0.00000000       0.004
   0.50000000  0.04761905  0.00000000       0.004
   0.50000000  0.07142857  0.00000000       0.004
   0.50000000  0.09523810  0.00000000       0.004
   0.50000000  0.11904762  0.00000000       0.004
   0.50000000  0.14285714  0.00000000       0.004
   0.50000000  0.16666667  0.00000000       0.004
   0.50000000  0.19047619  0.00000000       0.004
   0.50000000  0.21428571  0.00000000       0.004
   0.50000000  0.23809524  0.00000000       0.004
   0.50000000  0.26190476  0.00000000       0.004
   0.50000000  0.28571429  0.00000000       0.004
   0.50000000  0.30952381  0.00000000       0.004
   0.50000000  0.33333333  0.00000000       0.004
   0.50000000  0.35714286  0.00000000       0.004
   0.50000000  0.38095238  0.00000000       0.004
   0.50000000  0.40476190  0.00000000       0.004
   0.50000000  0.42857143  0.00000000       0.004
   0.50000000  0.45238095  0.00000000       0.004
   0.50000000  0.47619048  0.00000000       0.004
   0.50000000  0.50000000  0.00000000       0.004
   0.50000000  0.50000000  0.00000000       0.004
   0.47826087  0.50000000  0.00000000       0.004
   0.45652174  0.50000000  0.00000000       0.004
   0.43478261  0.50000000  0.00000000       0.004
   0.41304348  0.50000000  0.00000000       0.004
   0.39130435  0.50000000  0.00000000       0.004
   0.36956522  0.50000000  0.00000000       0.004
   0.34782609  0.50000000  0.00000000       0.004
   0.32608696  0.50000000  0.00000000       0.004
   0.30434783  0.50000000  0.00000000       0.004
   0.28260870  0.50000000  0.00000000       0.004
   0.26086957  0.50000000  0.00000000       0.004
   0.23913043  0.50000000  0.00000000       0.004
   0.21739130  0.50000000  0.00000000       0.004
   0.19565217  0.50000000  0.00000000       0.004
   0.17391304  0.50000000  0.00000000       0.004
   0.15217391  0.50000000  0.00000000       0.004
   0.13043478  0.50000000  0.00000000       0.004
   0.10869565  0.50000000  0.00000000       0.004
   0.08695652  0.50000000  0.00000000       0.004
   0.06521739  0.50000000  0.00000000       0.004
   0.04347826  0.50000000  0.00000000       0.004
   0.02173913  0.50000000  0.00000000       0.004
   0.00000000  0.50000000  0.00000000       0.004
   0.00000000  0.50000000  0.00000000       0.004
   0.00000000  0.47619048  0.00000000       0.004
   0.00000000  0.45238095  0.00000000       0.004
   0.00000000  0.42857143  0.00000000       0.004
   0.00000000  0.40476190  0.00000000       0.004
   0.00000000  0.38095238  0.00000000       0.004
   0.00000000  0.35714286  0.00000000       0.004
   0.00000000  0.33333333  0.00000000       0.004
   0.00000000  0.30952381  0.00000000       0.004
   0.00000000  0.28571429  0.00000000       0.004
   0.00000000  0.26190476  0.00000000       0.004
   0.00000000  0.23809524  0.00000000       0.004
   0.00000000  0.21428571  0.00000000       0.004
   0.00000000  0.19047619  0.00000000       0.004
   0.00000000  0.16666667  0.00000000       0.004
   0.00000000  0.14285714  0.00000000       0.004
   0.00000000  0.11904762  0.00000000       0.004
   0.00000000  0.09523810  0.00000000       0.004
   0.00000000  0.07142857  0.00000000       0.004
   0.00000000  0.04761905  0.00000000       0.004
   0.00000000  0.02380952  0.00000000       0.004
   0.00000000  0.00000000  0.00000000       0.004
   0.00000000  0.00000000  0.00000000       0.004
   0.00000000  0.00000000  0.05555556       0.004
   0.00000000  0.00000000  0.11111111       0.004
   0.00000000  0.00000000  0.16666667       0.004
   0.00000000  0.00000000  0.22222222       0.004
   0.00000000  0.00000000  0.27777778       0.004
   0.00000000  0.00000000  0.33333333       0.004
  -0.00000000  0.00000000  0.38888889       0.004
   0.00000000  0.00000000  0.44444444       0.004
   0.00000000  0.00000000  0.50000000       0.004
   0.00000000  0.00000000  0.50000000       0.004
   0.02173913  0.00000000  0.50000000       0.004
   0.04347826 -0.00000000  0.50000000       0.004
   0.06521739  0.00000000  0.50000000       0.004
   0.08695652  0.00000000  0.50000000       0.004
   0.10869565  0.00000000  0.50000000       0.004
   0.13043478  0.00000000  0.50000000       0.004
   0.15217391  0.00000000  0.50000000       0.004
   0.17391304  0.00000000  0.50000000       0.004
   0.19565217  0.00000000  0.50000000       0.004
   0.21739130  0.00000000  0.50000000       0.004
   0.23913043  0.00000000  0.50000000       0.004
   0.26086957  0.00000000  0.50000000       0.004
   0.28260870  0.00000000  0.50000000       0.004
   0.30434783  0.00000000  0.50000000       0.004
   0.32608696 -0.00000000  0.50000000       0.004
   0.34782609 -0.00000000  0.50000000       0.004
   0.36956522  0.00000000  0.50000000       0.004
   0.39130435  0.00000000  0.50000000       0.004
   0.41304348 -0.00000000  0.50000000       0.004
   0.43478261  0.00000000  0.50000000       0.004
   0.45652174  0.00000000  0.50000000       0.004
   0.47826087  0.00000000  0.50000000       0.004
   0.50000000  0.00000000  0.50000000       0.004
   0.50000000  0.00000000  0.50000000       0.004
   0.50000000  0.02380952  0.50000000       0.004
   0.50000000  0.04761905  0.50000000       0.004
   0.50000000  0.07142857  0.50000000       0.004
   0.50000000  0.09523810  0.50000000       0.004
   0.50000000  0.11904762  0.50000000       0.004
   0.50000000  0.14285714  0.50000000       0.004
   0.50000000  0.16666667  0.50000000       0.004
   0.50000000  0.19047619  0.50000000       0.004
   0.50000000  0.21428571  0.50000000       0.004
   0.50000000  0.23809524  0.50000000       0.004
   0.50000000  0.26190476  0.50000000       0.004
   0.50000000  0.28571429  0.50000000       0.004
   0.50000000  0.30952381  0.50000000       0.004
   0.50000000  0.33333333  0.50000000       0.004
   0.50000000  0.35714286  0.50000000       0.004
   0.50000000  0.38095238  0.50000000       0.004
   0.50000000  0.40476190  0.50000000       0.004
   0.50000000  0.42857143  0.50000000       0.004
   0.50000000  0.45238095  0.50000000       0.004
   0.50000000  0.47619048  0.50000000       0.004
   0.50000000  0.50000000  0.50000000       0.004
   0.50000000  0.50000000  0.50000000       0.004
   0.47826087  0.50000000  0.50000000       0.004
   0.45652174  0.50000000  0.50000000       0.004
   0.43478261  0.50000000  0.50000000       0.004
   0.41304348  0.50000000  0.50000000       0.004
   0.39130435  0.50000000  0.50000000       0.004
   0.36956522  0.50000000  0.50000000       0.004
   0.34782609  0.50000000  0.50000000       0.004
   0.32608696  0.50000000  0.50000000       0.004
   0.30434783  0.50000000  0.50000000       0.004
   0.28260870  0.50000000  0.50000000       0.004
   0.26086957  0.50000000  0.50000000       0.004
   0.23913043  0.50000000  0.50000000       0.004
   0.21739130  0.50000000  0.50000000       0.004
   0.19565217  0.50000000  0.50000000       0.004
   0.17391304  0.50000000  0.50000000       0.004
   0.15217391  0.50000000  0.50000000       0.004
   0.13043478  0.50000000  0.50000000       0.004
   0.10869565  0.50000000  0.50000000       0.004
   0.08695652  0.50000000  0.50000000       0.004
   0.06521739  0.50000000  0.50000000       0.004
   0.04347826  0.50000000  0.50000000       0.004
   0.02173913  0.50000000  0.50000000       0.004
   0.00000000  0.50000000  0.50000000       0.004
   0.00000000  0.50000000  0.50000000       0.004
   0.00000000  0.47619048  0.50000000       0.004
   0.00000000  0.45238095  0.50000000       0.004
   0.00000000  0.42857143  0.50000000       0.004
   0.00000000  0.40476190  0.50000000       0.004
   0.00000000  0.38095238  0.50000000       0.004
   0.00000000  0.35714286  0.50000000       0.004
   0.00000000  0.33333333  0.50000000       0.004
   0.00000000  0.30952381  0.50000000       0.004
   0.00000000  0.28571429  0.50000000       0.004
   0.00000000  0.26190476  0.50000000       0.004
   0.00000000  0.23809524  0.50000000       0.004
   0.00000000  0.21428571  0.50000000       0.004
   0.00000000  0.19047619  0.50000000       0.004
   0.00000000  0.16666667  0.50000000       0.004
   0.00000000  0.14285714  0.50000000       0.004
   0.00000000  0.11904762  0.50000000       0.004
   0.00000000  0.09523810  0.50000000       0.004
   0.00000000  0.07142857  0.50000000       0.004
   0.00000000  0.04761905  0.50000000       0.004
   0.00000000  0.02380952  0.50000000       0.004
   0.00000000  0.00000000  0.50000000       0.004
   0.00000000  0.50000000  0.00000000       0.004
   0.00000000  0.50000000  0.05555556       0.004
   0.00000000  0.50000000  0.11111111       0.004
   0.00000000  0.50000000  0.16666667       0.004
   0.00000000  0.50000000  0.22222222       0.004
   0.00000000  0.50000000  0.27777778       0.004
   0.00000000  0.50000000  0.33333333       0.004
  -0.00000000  0.50000000  0.38888889       0.004
   0.00000000  0.50000000  0.44444444       0.004
   0.00000000  0.50000000  0.50000000       0.004
   0.50000000  0.00000000  0.50000000       0.004
   0.50000000 -0.00000000  0.44444444       0.004
   0.50000000 -0.00000000  0.38888889       0.004
   0.50000000  0.00000000  0.33333333       0.004
   0.50000000 -0.00000000  0.27777778       0.004
   0.50000000  0.00000000  0.22222222       0.004
   0.50000000  0.00000000  0.16666667       0.004
   0.50000000  0.00000000  0.11111111       0.004
   0.50000000 -0.00000000  0.05555556       0.004
   0.50000000  0.00000000  0.00000000       0.004
   0.50000000  0.50000000  0.00000000       0.004
   0.50000000  0.50000000  0.05555556       0.004
   0.50000000  0.50000000  0.11111111       0.004
   0.50000000  0.50000000  0.16666667       0.004
   0.50000000  0.50000000  0.22222222       0.004
   0.50000000  0.50000000  0.27777778       0.004
   0.50000000  0.50000000  0.33333333       0.004
   0.50000000  0.50000000  0.38888889       0.004
   0.50000000  0.50000000  0.44444444       0.004
   0.50000000  0.50000000  0.50000000       0.004

 position of ions in fractional coordinates (direct lattice) 
   0.25000000  0.11267971  0.11682412
   0.75000000  0.88732029  0.88317588
   0.75000000  0.61267971  0.38317588
   0.25000000  0.38732029  0.61682412
   0.75000000  0.51878540  0.14519304
   0.25000000  0.48121460  0.85480696
   0.25000000  0.01878540  0.35480696
   0.75000000  0.98121460  0.64519304

 position of ions in cartesian coordinates  (Angst):
   1.04259243  0.51229041  1.35289102
   3.12777730  4.03413952 10.22768860
   3.12777730  2.78550537  4.43739879
   1.04259243  1.76092456  7.14318083
   3.12777730  2.35862147  1.68141956
   1.04259243  2.18780846  9.89916006
   1.04259243  0.08540650  4.10887025
   3.12777730  4.46102343  7.47170937



--------------------------------------------------------------------------------------------------------


 k-point  1 :   0.0000 0.0000 0.0000  plane waves:    7321
 k-point  2 :   0.0217 0.0000 0.0000  plane waves:    7331
 k-point  3 :   0.0435 0.0000 0.0000  plane waves:    7323
 k-point  4 :   0.0652 0.0000 0.0000  plane waves:    7327
 k-point  5 :   0.0870 0.0000 0.0000  plane waves:    7323
 k-point  6 :   0.1087 0.0000 0.0000  plane waves:    7317
 k-point  7 :   0.1304 0.0000 0.0000  plane waves:    7329
 k-point  8 :   0.1522 0.0000 0.0000  plane waves:    7313
 k-point  9 :   0.1739 0.0000 0.0000  plane waves:    7321
 k-point 10 :   0.1957 0.0000 0.0000  plane waves:    7317
 k-point 11 :   0.2174 0.0000 0.0000  plane waves:    7327
 k-point 12 :   0.2391 0.0000 0.0000  plane waves:    7325
 k-point 13 :   0.2609 0.0000 0.0000  plane waves:    7307
 k-point 14 :   0.2826 0.0000 0.0000  plane waves:    7313
 k-point 15 :   0.3043 0.0000 0.0000  plane waves:    7307
 k-point 16 :   0.3261 0.0000 0.0000  plane waves:    7299
 k-point 17 :   0.3478 0.0000 0.0000  plane waves:    7292
 k-point 18 :   0.3696 0.0000 0.0000  plane waves:    7294
 k-point 19 :   0.3913 0.0000 0.0000  plane waves:    7288
 k-point 20 :   0.4130 0.0000 0.0000  plane waves:    7292
 k-point 21 :   0.4348 0.0000 0.0000  plane waves:    7302
 k-point 22 :   0.4565 0.0000 0.0000  plane waves:    7286
 k-point 23 :   0.4783 0.0000 0.0000  plane waves:    7288
 k-point 24 :   0.5000 0.0000 0.0000  plane waves:    7292
 k-point 25 :   0.5000 0.0000 0.0000  plane waves:    7292
 k-point 26 :   0.5000 0.0238 0.0000  plane waves:    7280
 k-point 27 :   0.5000 0.0476 0.0000  plane waves:    7284
 k-point 28 :   0.5000 0.0714 0.0000  plane waves:    7290
 k-point 29 :   0.5000 0.0952 0.0000  plane waves:    7302
 k-point 30 :   0.5000 0.1190 0.0000  plane waves:    7310
 k-point 31 :   0.5000 0.1429 0.0000  plane waves:    7306
 k-point 32 :   0.5000 0.1667 0.0000  plane waves:    7306
 k-point 33 :   0.5000 0.1905 0.0000  plane waves:    7308
 k-point 34 :   0.5000 0.2143 0.0000  plane waves:    7304
 k-point 35 :   0.5000 0.2381 0.0000  plane waves:    7324
 k-point 36 :   0.5000 0.2619 0.0000  plane waves:    7326
 k-point 37 :   0.5000 0.2857 0.0000  plane waves:    7330
 k-point 38 :   0.5000 0.3095 0.0000  plane waves:    7330
 k-point 39 :   0.5000 0.3333 0.0000  plane waves:    7332
 k-point 40 :   0.5000 0.3571 0.0000  plane waves:    7342
 k-point 41 :   0.5000 0.3810 0.0000  plane waves:    7364
 k-point 42 :   0.5000 0.4048 0.0000  plane waves:    7356
 k-point 43 :   0.5000 0.4286 0.0000  plane waves:    7360
 k-point 44 :   0.5000 0.4524 0.0000  plane waves:    7348
 k-point 45 :   0.5000 0.4762 0.0000  plane waves:    7348
 k-point 46 :   0.5000 0.5000 0.0000  plane waves:    7352
 k-point 47 :   0.5000 0.5000 0.0000  plane waves:    7352
 k-point 48 :   0.4783 0.5000 0.0000  plane waves:    7360
 k-point 49 :   0.4565 0.5000 0.0000  plane waves:    7372
 k-point 50 :   0.4348 0.5000 0.0000  plane waves:    7352
 k-point 51 :   0.4130 0.5000 0.0000  plane waves:    7340
 k-point 52 :   0.3913 0.5000 0.0000  plane waves:    7340
 k-point 53 :   0.3696 0.5000 0.0000  plane waves:    7346
 k-point 54 :   0.3478 0.5000 0.0000  plane waves:    7334
 k-point 55 :   0.3261 0.5000 0.0000  plane waves:    7334
 k-point 56 :   0.3043 0.5000 0.0000  plane waves:    7332
 k-point 57 :   0.2826 0.5000 0.0000  plane waves:    7324
 k-point 58 :   0.2609 0.5000 0.0000  plane waves:    7328
 k-point 59 :   0.2391 0.5000 0.0000  plane waves:    7332
 k-point 60 :   0.2174 0.5000 0.0000  plane waves:    7330
 k-point 61 :   0.1957 0.5000 0.0000  plane waves:    7332
 k-point 62 :   0.1739 0.5000 0.0000  plane waves:    7334
 k-point 63 :   0.1522 0.5000 0.0000  plane waves:    7350
 k-point 64 :   0.1304 0.5000 0.0000  plane waves:    7350
 k-point 65 :   0.1087 0.5000 0.0000  plane waves:    7358
 k-point 66 :   0.0870 0.5000 0.0000  plane waves:    7354
 k-point 67 :   0.0652 0.5000 0.0000  plane waves:    7344
 k-point 68 :   0.0435 0.5000 0.0000  plane waves:    7352
 k-point 69 :   0.0217 0.5000 0.0000  plane waves:    7340
 k-point 70 :   0.0000 0.5000 0.0000  plane waves:    7338
 k-point 71 :   0.0000 0.5000 0.0000  plane waves:    7338
 k-point 72 :   0.0000 0.4762 0.0000  plane waves:    7334
 k-point 73 :   0.0000 0.4524 0.0000  plane waves:    7350
 k-point 74 :   0.0000 0.4286 0.0000  plane waves:    7362
 k-point 75 :   0.0000 0.4048 0.0000  plane waves:    7354
 k-point 76 :   0.0000 0.3810 0.0000  plane waves:    7354
 k-point 77 :   0.0000 0.3571 0.0000  plane waves:    7368
 k-point 78 :   0.0000 0.3333 0.0000  plane waves:    7366
 k-point 79 :   0.0000 0.3095 0.0000  plane waves:    7346
 k-point 80 :   0.0000 0.2857 0.0000  plane waves:    7338
 k-point 81 :   0.0000 0.2619 0.0000  plane waves:    7332
 k-point 82 :   0.0000 0.2381 0.0000  plane waves:    7332
 k-point 83 :   0.0000 0.2143 0.0000  plane waves:    7338
 k-point 84 :   0.0000 0.1905 0.0000  plane waves:    7318
 k-point 85 :   0.0000 0.1667 0.0000  plane waves:    7336
 k-point 86 :   0.0000 0.1429 0.0000  plane waves:    7342
 k-point 87 :   0.0000 0.1190 0.0000  plane waves:    7328
 k-point 88 :   0.0000 0.0952 0.0000  plane waves:    7332
 k-point 89 :   0.0000 0.0714 0.0000  plane waves:    7331
 k-point 90 :   0.0000 0.0476 0.0000  plane waves:    7325
 k-point 91 :   0.0000 0.0238 0.0000  plane waves:    7319
 k-point 92 :   0.0000 0.0000 0.0000  plane waves:    7321
 k-point 93 :   0.0000 0.0000 0.0000  plane waves:    7321
 k-point 94 :   0.0000 0.0000 0.0556  plane waves:    7319
 k-point 95 :   0.0000 0.0000 0.1111  plane waves:    7323
 k-point 96 :   0.0000 0.0000 0.1667  plane waves:    7322
 k-point 97 :   0.0000 0.0000 0.2222  plane waves:    7332
 k-point 98 :   0.0000 0.0000 0.2778  plane waves:    7332
 k-point 99 :   0.0000 0.0000 0.3333  plane waves:    7316
 k-point ** :  -0.0000 0.0000 0.3889  plane waves:    7322
 k-point ** :   0.0000 0.0000 0.4444  plane waves:    7300
 k-point ** :   0.0000 0.0000 0.5000  plane waves:    7286
 k-point ** :   0.0000 0.0000 0.5000  plane waves:    7286
 k-point ** :   0.0217 0.0000 0.5000  plane waves:    7300
 k-point ** :   0.0435-0.0000 0.5000  plane waves:    7308
 k-point ** :   0.0652 0.0000 0.5000  plane waves:    7328
 k-point ** :   0.0870 0.0000 0.5000  plane waves:    7340
 k-point ** :   0.1087 0.0000 0.5000  plane waves:    7338
 k-point ** :   0.1304 0.0000 0.5000  plane waves:    7324
 k-point ** :   0.1522 0.0000 0.5000  plane waves:    7326
 k-point ** :   0.1739 0.0000 0.5000  plane waves:    7326
 k-point ** :   0.1957 0.0000 0.5000  plane waves:    7324
 k-point ** :   0.2174 0.0000 0.5000  plane waves:    7324
 k-point ** :   0.2391 0.0000 0.5000  plane waves:    7318
 k-point ** :   0.2609 0.0000 0.5000  plane waves:    7316
 k-point ** :   0.2826 0.0000 0.5000  plane waves:    7310
 k-point ** :   0.3043 0.0000 0.5000  plane waves:    7314
 k-point ** :   0.3261-0.0000 0.5000  plane waves:    7328
 k-point ** :   0.3478-0.0000 0.5000  plane waves:    7326
 k-point ** :   0.3696 0.0000 0.5000  plane waves:    7322
 k-point ** :   0.3913 0.0000 0.5000  plane waves:    7314
 k-point ** :   0.4130-0.0000 0.5000  plane waves:    7316
 k-point ** :   0.4348 0.0000 0.5000  plane waves:    7318
 k-point ** :   0.4565 0.0000 0.5000  plane waves:    7304
 k-point ** :   0.4783 0.0000 0.5000  plane waves:    7316
 k-point ** :   0.5000 0.0000 0.5000  plane waves:    7316
 k-point ** :   0.5000 0.0000 0.5000  plane waves:    7316
 k-point ** :   0.5000 0.0238 0.5000  plane waves:    7312
 k-point ** :   0.5000 0.0476 0.5000  plane waves:    7304
 k-point ** :   0.5000 0.0714 0.5000  plane waves:    7300
 k-point ** :   0.5000 0.0952 0.5000  plane waves:    7304
 k-point ** :   0.5000 0.1190 0.5000  plane waves:    7308
 k-point ** :   0.5000 0.1429 0.5000  plane waves:    7308
 k-point ** :   0.5000 0.1667 0.5000  plane waves:    7312
 k-point ** :   0.5000 0.1905 0.5000  plane waves:    7316
 k-point ** :   0.5000 0.2143 0.5000  plane waves:    7312
 k-point ** :   0.5000 0.2381 0.5000  plane waves:    7308
 k-point ** :   0.5000 0.2619 0.5000  plane waves:    7316
 k-point ** :   0.5000 0.2857 0.5000  plane waves:    7312
 k-point ** :   0.5000 0.3095 0.5000  plane waves:    7316
 k-point ** :   0.5000 0.3333 0.5000  plane waves:    7320
 k-point ** :   0.5000 0.3571 0.5000  plane waves:    7312
 k-point ** :   0.5000 0.3810 0.5000  plane waves:    7328
 k-point ** :   0.5000 0.4048 0.5000  plane waves:    7336
 k-point ** :   0.5000 0.4286 0.5000  plane waves:    7348
 k-point ** :   0.5000 0.4524 0.5000  plane waves:    7344
 k-point ** :   0.5000 0.4762 0.5000  plane waves:    7352
 k-point ** :   0.5000 0.5000 0.5000  plane waves:    7360
 k-point ** :   0.5000 0.5000 0.5000  plane waves:    7360
 k-point ** :   0.4783 0.5000 0.5000  plane waves:    7348
 k-point ** :   0.4565 0.5000 0.5000  plane waves:    7356
 k-point ** :   0.4348 0.5000 0.5000  plane waves:    7356
 k-point ** :   0.4130 0.5000 0.5000  plane waves:    7352
 k-point ** :   0.3913 0.5000 0.5000  plane waves:    7352
 k-point ** :   0.3696 0.5000 0.5000  plane waves:    7340
 k-point ** :   0.3478 0.5000 0.5000  plane waves:    7340
 k-point ** :   0.3261 0.5000 0.5000  plane waves:    7328
 k-point ** :   0.3043 0.5000 0.5000  plane waves:    7320
 k-point ** :   0.2826 0.5000 0.5000  plane waves:    7324
 k-point ** :   0.2609 0.5000 0.5000  plane waves:    7332
 k-point ** :   0.2391 0.5000 0.5000  plane waves:    7312
 k-point ** :   0.2174 0.5000 0.5000  plane waves:    7320
 k-point ** :   0.1957 0.5000 0.5000  plane waves:    7336
 k-point ** :   0.1739 0.5000 0.5000  plane waves:    7336
 k-point ** :   0.1522 0.5000 0.5000  plane waves:    7332
 k-point ** :   0.1304 0.5000 0.5000  plane waves:    7332
 k-point ** :   0.1087 0.5000 0.5000  plane waves:    7320
 k-point ** :   0.0870 0.5000 0.5000  plane waves:    7324
 k-point ** :   0.0652 0.5000 0.5000  plane waves:    7336
 k-point ** :   0.0435 0.5000 0.5000  plane waves:    7344
 k-point ** :   0.0217 0.5000 0.5000  plane waves:    7340
 k-point ** :   0.0000 0.5000 0.5000  plane waves:    7336
 k-point ** :   0.0000 0.5000 0.5000  plane waves:    7336
 k-point ** :   0.0000 0.4762 0.5000  plane waves:    7320
 k-point ** :   0.0000 0.4524 0.5000  plane waves:    7320
 k-point ** :   0.0000 0.4286 0.5000  plane waves:    7316
 k-point ** :   0.0000 0.4048 0.5000  plane waves:    7318
 k-point ** :   0.0000 0.3810 0.5000  plane waves:    7318
 k-point ** :   0.0000 0.3571 0.5000  plane waves:    7320
 k-point ** :   0.0000 0.3333 0.5000  plane waves:    7326
 k-point ** :   0.0000 0.3095 0.5000  plane waves:    7330
 k-point ** :   0.0000 0.2857 0.5000  plane waves:    7334
 k-point ** :   0.0000 0.2619 0.5000  plane waves:    7350
 k-point ** :   0.0000 0.2381 0.5000  plane waves:    7336
 k-point ** :   0.0000 0.2143 0.5000  plane waves:    7344
 k-point ** :   0.0000 0.1905 0.5000  plane waves:    7342
 k-point ** :   0.0000 0.1667 0.5000  plane waves:    7332
 k-point ** :   0.0000 0.1429 0.5000  plane waves:    7332
 k-point ** :   0.0000 0.1190 0.5000  plane waves:    7342
 k-point ** :   0.0000 0.0952 0.5000  plane waves:    7326
 k-point ** :   0.0000 0.0714 0.5000  plane waves:    7326
 k-point ** :   0.0000 0.0476 0.5000  plane waves:    7306
 k-point ** :   0.0000 0.0238 0.5000  plane waves:    7302
 k-point ** :   0.0000 0.0000 0.5000  plane waves:    7286
 k-point ** :   0.0000 0.5000 0.0000  plane waves:    7338
 k-point ** :   0.0000 0.5000 0.0556  plane waves:    7344
 k-point ** :   0.0000 0.5000 0.1111  plane waves:    7344
 k-point ** :   0.0000 0.5000 0.1667  plane waves:    7332
 k-point ** :   0.0000 0.5000 0.2222  plane waves:    7342
 k-point ** :   0.0000 0.5000 0.2778  plane waves:    7332
 k-point ** :   0.0000 0.5000 0.3333  plane waves:    7324
 k-point ** :  -0.0000 0.5000 0.3889  plane waves:    7330
 k-point ** :   0.0000 0.5000 0.4444  plane waves:    7328
 k-point ** :   0.0000 0.5000 0.5000  plane waves:    7336
 k-point ** :   0.5000 0.0000 0.5000  plane waves:    7316
 k-point ** :   0.5000-0.0000 0.4444  plane waves:    7312
 k-point ** :   0.5000-0.0000 0.3889  plane waves:    7296
 k-point ** :   0.5000 0.0000 0.3333  plane waves:    7314
 k-point ** :   0.5000-0.0000 0.2778  plane waves:    7302
 k-point ** :   0.5000 0.0000 0.2222  plane waves:    7308
 k-point ** :   0.5000 0.0000 0.1667  plane waves:    7296
 k-point ** :   0.5000 0.0000 0.1111  plane waves:    7288
 k-point ** :   0.5000-0.0000 0.0556  plane waves:    7290
 k-point ** :   0.5000 0.0000 0.0000  plane waves:    7292
 k-point ** :   0.5000 0.5000 0.0000  plane waves:    7352
 k-point ** :   0.5000 0.5000 0.0556  plane waves:    7348
 k-point ** :   0.5000 0.5000 0.1111  plane waves:    7360
 k-point ** :   0.5000 0.5000 0.1667  plane waves:    7360
 k-point ** :   0.5000 0.5000 0.2222  plane waves:    7360
 k-point ** :   0.5000 0.5000 0.2778  plane waves:    7360
 k-point ** :   0.5000 0.5000 0.3333  plane waves:    7352
 k-point ** :   0.5000 0.5000 0.3889  plane waves:    7356
 k-point ** :   0.5000 0.5000 0.4444  plane waves:    7356
 k-point ** :   0.5000 0.5000 0.5000  plane waves:    7360

 maximum and minimum number of plane-waves per node :      3697     3612

 maximum number of plane-waves:      7372
 maximum index in each direction: 
   IXMAX=    8   IYMAX=    9   IZMAX=   23
   IXMIN=   -8   IYMIN=   -9   IZMIN=  -23


 parallel 3D FFT for wavefunctions:
    minimum data exchange during FFTs selected (reduces bandwidth)
 parallel 3D FFT for charge:
    minimum data exchange during FFTs selected (reduces bandwidth)


 total amount of memory used by VASP MPI-rank0  1264948. kBytes
=======================================================================

   base      :      30000. kBytes
   nonl-proj :     238133. kBytes
   fftplans  :      20075. kBytes
   grid      :       9517. kBytes
   one-center:         62. kBytes
   wavefun   :     967161. kBytes

     INWAV:  cpu time    0.0000: real time    0.0001
 initial charge density was supplied:
 number of electron      79.9999999 magnetization 
 keeping initial charge density in first step


--------------------------------------------------------------------------------------------------------


 Maximum index for augmentation-charges        24546 (set IRDMAX)


--------------------------------------------------------------------------------------------------------


 First call to EWALD:  gamma=   0.294
 Maximum number of real-space cells 4x 3x 2
 Maximum number of reciprocal cells 2x 2x 5

    FEWALD:  cpu time    0.0266: real time    0.0266


--------------------------------------- Iteration      1(   1)  ---------------------------------------


    POTLOK:  cpu time    0.2264: real time    0.2269
    SETDIJ:  cpu time    0.1396: real time    0.1404
    TRIAL :  cpu time  138.2273: real time  141.3272
    CORREC:  cpu time    0.1889: real time    0.1889
    --------------------------------------------
      LOOP:  cpu time  139.0870: real time  142.1883

 eigenvalue-minimisations  : 52720
 total energy-change (2. order) : 0.9567347E+03  (-0.3777087E+04)
 number of electron      79.9999999 magnetization 
 augmentation part       79.9999999 magnetization 

 Free energy of the ion-electron system (eV)
  ---------------------------------------------------
  alpha Z        PSCENC =       201.27973507
  Ewald energy   TEWEN  =     -5913.14810762
  -Hartree energ DENC   =     -2401.96295668
  -exchange      EXHF   =         0.00000000
  -V(xc)+E(xc)   XCENC  =       225.04139038
  PAW double counting   =      8371.16203754    -8465.05467656
  entropy T*S    EENTRO =        -0.00004293
  eigenvalues    EBANDS =       338.47258903
  atomic energy  EATOM  =      8600.94477988
  ---------------------------------------------------
  free energy    TOTEN  =       956.73474810 eV

  energy without entropy =      956.73479103  energy(sigma->0) =      956.73476957


--------------------------------------------------------------------------------------------------------




--------------------------------------- Iteration      1(   2)  ---------------------------------------


    TRIAL :  cpu time  107.7341: real time  110.4909
    CORREC:  cpu time    0.0081: real time    0.0081
    --------------------------------------------
      LOOP:  cpu time  107.7425: real time  110.4995

 eigenvalue-minimisations  : 43008
 total energy-change (2. order) :-0.7899770E+03  (-0.6979342E+03)
 number of electron      79.9999999 magnetization 
 augmentation part       79.9999999 magnetization 

 Free energy of the ion-electron system (eV)
  ---------------------------------------------------
  alpha Z        PSCENC =       201.27973507
  Ewald energy   TEWEN  =     -5913.14810762
  -Hartree energ DENC   =     -2401.96295668
  -exchange      EXHF   =         0.00000000
  -V(xc)+E(xc)   XCENC  =       225.04139038
  PAW double counting   =      8371.16203754    -8465.05467656
  entropy T*S    EENTRO =        -0.00011966
  eigenvalues    EBANDS =      -451.50436714
  atomic energy  EATOM  =      8600.94477988
  ---------------------------------------------------
  free energy    TOTEN  =       166.75771521 eV

  energy without entropy =      166.75783487  energy(sigma->0) =      166.75777504


--------------------------------------------------------------------------------------------------------




--------------------------------------- Iteration      1(   3)  ---------------------------------------


    TRIAL :  cpu time  104.9756: real time  108.4150
    CORREC:  cpu time    0.0025: real time    0.0025
    --------------------------------------------
      LOOP:  cpu time  104.9784: real time  108.4179

 eigenvalue-minimisations  : 47496
 total energy-change (2. order) :-0.1857230E+03  (-0.1770246E+03)
 number of electron      79.9999999 magnetization 
 augmentation part       79.9999999 magnetization 

 Free energy of the ion-electron system (eV)
  ---------------------------------------------------
  alpha Z        PSCENC =       201.27973507
  Ewald energy   TEWEN  =     -5913.14810762
  -Hartree energ DENC   =     -2401.96295668
  -exchange      EXHF   =         0.00000000
  -V(xc)+E(xc)   XCENC  =       225.04139038
  PAW double counting   =      8371.16203754    -8465.05467656
  entropy T*S    EENTRO =        -0.00000000
  eigenvalues    EBANDS =      -637.22750742
  atomic energy  EATOM  =      8600.94477988
  ---------------------------------------------------
  free energy    TOTEN  =       -18.96530541 eV

  energy without entropy =      -18.96530541  energy(sigma->0) =      -18.96530541


--------------------------------------------------------------------------------------------------------




--------------------------------------- Iteration      1(   4)  ---------------------------------------


    TRIAL :  cpu time  138.3539: real time  146.0323
    CORREC:  cpu time    0.0027: real time    0.0027
    --------------------------------------------
      LOOP:  cpu time  138.3577: real time  146.0354

 eigenvalue-minimisations  : 51664
 total energy-change (2. order) :-0.1327102E+02  (-0.1315772E+02)
 number of electron      79.9999999 magnetization 
 augmentation part       79.9999999 magnetization 

 Free energy of the ion-electron system (eV)
  ---------------------------------------------------
  alpha Z        PSCENC =       201.27973507
  Ewald energy   TEWEN  =     -5913.14810762
  -Hartree energ DENC   =     -2401.96295668
  -exchange      EXHF   =         0.00000000
  -V(xc)+E(xc)   XCENC  =       225.04139038
  PAW double counting   =      8371.16203754    -8465.05467656
  entropy T*S    EENTRO =        -0.00000000
  eigenvalues    EBANDS =      -650.49853184
  atomic energy  EATOM  =      8600.94477988
  ---------------------------------------------------
  free energy    TOTEN  =       -32.23632984 eV

  energy without entropy =      -32.23632984  energy(sigma->0) =      -32.23632984


--------------------------------------------------------------------------------------------------------




--------------------------------------- Iteration      1(   5)  ---------------------------------------


    TRIAL :  cpu time  132.3507: real time  137.4719
    CORREC:  cpu time    0.0027: real time    0.0027
    --------------------------------------------
      LOOP:  cpu time  132.3536: real time  137.4749

 eigenvalue-minimisations  : 52344
 total energy-change (2. order) :-0.3005760E+00  (-0.3004673E+00)
 number of electron      79.9999999 magnetization 
 augmentation part       79.9999999 magnetization 

 Free energy of the ion-electron system (eV)
  ---------------------------------------------------
  alpha Z        PSCENC =       201.27973507
  Ewald energy   TEWEN  =     -5913.14810762
  -Hartree energ DENC   =     -2401.96295668
  -exchange      EXHF   =         0.00000000
  -V(xc)+E(xc)   XCENC  =       225.04139038
  PAW double counting   =      8371.16203754    -8465.05467656
  entropy T*S    EENTRO =        -0.00000000
  eigenvalues    EBANDS =      -650.79910785
  atomic energy  EATOM  =      8600.94477988
  ---------------------------------------------------
  free energy    TOTEN  =       -32.53690584 eV

  energy without entropy =      -32.53690584  energy(sigma->0) =      -32.53690584


--------------------------------------------------------------------------------------------------------




--------------------------------------- Iteration      1(   6)  ---------------------------------------


    TRIAL :  cpu time   66.3170: real time   67.6508
    CORREC:  cpu time   15.2832: real time   15.6296
    --------------------------------------------
      LOOP:  cpu time   81.6005: real time   83.2808

 eigenvalue-minimisations  :     0
 total energy-change (2. order) : 0.1818989E-10  (-0.7492294E-02)
 number of electron      79.9999999 magnetization 
 augmentation part       79.9999999 magnetization 

 Free energy of the ion-electron system (eV)
  ---------------------------------------------------
  alpha Z        PSCENC =       201.27973507
  Ewald energy   TEWEN  =     -5913.14810762
  -Hartree energ DENC   =     -2401.96295668
  -exchange      EXHF   =         0.00000000
  -V(xc)+E(xc)   XCENC  =       225.04139038
  PAW double counting   =      8371.16203754    -8465.05467656
  entropy T*S    EENTRO =        -0.00000000
  eigenvalues    EBANDS =      -650.79910785
  atomic energy  EATOM  =      8600.94477988
  ---------------------------------------------------
  free energy    TOTEN  =       -32.53690584 eV

  energy without entropy =      -32.53690584  energy(sigma->0) =      -32.53690584


--------------------------------------------------------------------------------------------------------




--------------------------------------- Iteration      1(   7)  ---------------------------------------


    TRIAL :  cpu time   68.7433: real time   70.5768
    CORREC:  cpu time   14.9034: real time   15.2951
    --------------------------------------------
      LOOP:  cpu time   83.6563: real time   85.8815

 eigenvalue-minimisations  :     0
 total energy-change (2. order) :-0.7492290E-02  (-0.2258740E-02)
 number of electron      79.9999999 magnetization 
 augmentation part       79.9999999 magnetization 

 Free energy of the ion-electron system (eV)
  ---------------------------------------------------
  alpha Z        PSCENC =       201.27973507
  Ewald energy   TEWEN  =     -5913.14810762
  -Hartree energ DENC   =     -2401.96295668
  -exchange      EXHF   =         0.00000000
  -V(xc)+E(xc)   XCENC  =       225.04139038
  PAW double counting   =      8371.16203754    -8465.05467656
  entropy T*S    EENTRO =        -0.00000000
  eigenvalues    EBANDS =      -650.80660014
  atomic energy  EATOM  =      8600.94477988
  ---------------------------------------------------
  free energy    TOTEN  =       -32.54439813 eV

  energy without entropy =      -32.54439813  energy(sigma->0) =      -32.54439813


--------------------------------------------------------------------------------------------------------




--------------------------------------- Iteration      1(   8)  ---------------------------------------


    TRIAL :  cpu time   67.7194: real time   77.3518
    CORREC:  cpu time   14.9659: real time   15.3756
    --------------------------------------------
      LOOP:  cpu time   82.9174: real time   92.9633

 eigenvalue-minimisations  :     0
 total energy-change (2. order) :-0.2258700E-02  (-0.7591147E-03)
 number of electron      79.9999999 magnetization 
 augmentation part       79.9999999 magnetization 

 Free energy of the ion-electron system (eV)
  ---------------------------------------------------
  alpha Z        PSCENC =       201.27973507
  Ewald energy   TEWEN  =     -5913.14810762
  -Hartree energ DENC   =     -2401.96295668
  -exchange      EXHF   =         0.00000000
  -V(xc)+E(xc)   XCENC  =       225.04139038
  PAW double counting   =      8371.16203754    -8465.05467656
  entropy T*S    EENTRO =        -0.00000000
  eigenvalues    EBANDS =      -650.80885884
  atomic energy  EATOM  =      8600.94477988
  ---------------------------------------------------
  free energy    TOTEN  =       -32.54665683 eV

  energy without entropy =      -32.54665683  energy(sigma->0) =      -32.54665683


--------------------------------------------------------------------------------------------------------




--------------------------------------- Iteration      1(   9)  ---------------------------------------


    TRIAL :  cpu time   61.6187: real time   63.7045
    CORREC:  cpu time   12.1185: real time   12.2586
    --------------------------------------------
      LOOP:  cpu time   73.7376: real time   75.9635

 eigenvalue-minimisations  :     0
 total energy-change (2. order) :-0.7590987E-03  (-0.1169748E-03)
 number of electron      79.9999999 magnetization 
 augmentation part       79.9999999 magnetization 

 Free energy of the ion-electron system (eV)
  ---------------------------------------------------
  alpha Z        PSCENC =       201.27973507
  Ewald energy   TEWEN  =     -5913.14810762
  -Hartree energ DENC   =     -2401.96295668
  -exchange      EXHF   =         0.00000000
  -V(xc)+E(xc)   XCENC  =       225.04139038
  PAW double counting   =      8371.16203754    -8465.05467656
  entropy T*S    EENTRO =        -0.00000000
  eigenvalues    EBANDS =      -650.80961794
  atomic energy  EATOM  =      8600.94477988
  ---------------------------------------------------
  free energy    TOTEN  =       -32.54741593 eV

  energy without entropy =      -32.54741593  energy(sigma->0) =      -32.54741593


--------------------------------------------------------------------------------------------------------




--------------------------------------- Iteration      1(  10)  ---------------------------------------


    TRIAL :  cpu time   54.4621: real time   55.7357
    CORREC:  cpu time   13.3765: real time   13.8048
    --------------------------------------------
      LOOP:  cpu time   67.9426: real time   69.6437

 eigenvalue-minimisations  :     0
 total energy-change (2. order) :-0.1169732E-03  (-0.3586008E-04)
 number of electron      79.9999999 magnetization 
 augmentation part       79.9999999 magnetization 

 Free energy of the ion-electron system (eV)
  ---------------------------------------------------
  alpha Z        PSCENC =       201.27973507
  Ewald energy   TEWEN  =     -5913.14810762
  -Hartree energ DENC   =     -2401.96295668
  -exchange      EXHF   =         0.00000000
  -V(xc)+E(xc)   XCENC  =       225.04139038
  PAW double counting   =      8371.16203754    -8465.05467656
  entropy T*S    EENTRO =        -0.00000000
  eigenvalues    EBANDS =      -650.80973491
  atomic energy  EATOM  =      8600.94477988
  ---------------------------------------------------
  free energy    TOTEN  =       -32.54753291 eV

  energy without entropy =      -32.54753291  energy(sigma->0) =      -32.54753291


--------------------------------------------------------------------------------------------------------




--------------------------------------- Iteration      1(  11)  ---------------------------------------


    TRIAL :  cpu time   79.4247: real time   82.2077
    CORREC:  cpu time   18.4854: real time   19.4466
    --------------------------------------------
      LOOP:  cpu time   98.0412: real time  101.7864

 eigenvalue-minimisations  :     0
 total energy-change (2. order) :-0.3585972E-04  (-0.8013219E-05)
 number of electron      79.9999999 magnetization 
 augmentation part       79.9999999 magnetization 

 Free energy of the ion-electron system (eV)
  ---------------------------------------------------
  alpha Z        PSCENC =       201.27973507
  Ewald energy   TEWEN  =     -5913.14810762
  -Hartree energ DENC   =     -2401.96295668
  -exchange      EXHF   =         0.00000000
  -V(xc)+E(xc)   XCENC  =       225.04139038
  PAW double counting   =      8371.16203754    -8465.05467656
  entropy T*S    EENTRO =        -0.00000000
  eigenvalues    EBANDS =      -650.80977077
  atomic energy  EATOM  =      8600.94477988
  ---------------------------------------------------
  free energy    TOTEN  =       -32.54756877 eV

  energy without entropy =      -32.54756877  energy(sigma->0) =      -32.54756877


--------------------------------------------------------------------------------------------------------




--------------------------------------- Iteration      1(  12)  ---------------------------------------


    TRIAL :  cpu time   74.3005: real time   78.7749
    CORREC:  cpu time   11.9364: real time   12.0761
    --------------------------------------------
      LOOP:  cpu time   86.4134: real time   91.0275

 eigenvalue-minimisations  :     0
 total energy-change (2. order) :-0.8013194E-05  (-0.1417256E-05)
 number of electron      79.9999999 magnetization 
 augmentation part       79.9999999 magnetization 

 Free energy of the ion-electron system (eV)
  ---------------------------------------------------
  alpha Z        PSCENC =       201.27973507
  Ewald energy   TEWEN  =     -5913.14810762
  -Hartree energ DENC   =     -2401.96295668
  -exchange      EXHF   =         0.00000000
  -V(xc)+E(xc)   XCENC  =       225.04139038
  PAW double counting   =      8371.16203754    -8465.05467656
  entropy T*S    EENTRO =        -0.00000000
  eigenvalues    EBANDS =      -650.80977879
  atomic energy  EATOM  =      8600.94477988
  ---------------------------------------------------
  free energy    TOTEN  =       -32.54757678 eV

  energy without entropy =      -32.54757678  energy(sigma->0) =      -32.54757678


--------------------------------------------------------------------------------------------------------




--------------------------------------- Iteration      1(  13)  ---------------------------------------


    TRIAL :  cpu time   61.1768: real time   62.0850
    CORREC:  cpu time   16.1277: real time   16.5565
    --------------------------------------------
      LOOP:  cpu time   77.3384: real time   78.6753

 eigenvalue-minimisations  :     0
 total energy-change (2. order) :-0.1417247E-05  (-0.3137099E-06)
 number of electron      79.9999999 magnetization 
 augmentation part       79.9999999 magnetization 

 Free energy of the ion-electron system (eV)
  ---------------------------------------------------
  alpha Z        PSCENC =       201.27973507
  Ewald energy   TEWEN  =     -5913.14810762
  -Hartree energ DENC   =     -2401.96295668
  -exchange      EXHF   =         0.00000000
  -V(xc)+E(xc)   XCENC  =       225.04139038
  PAW double counting   =      8371.16203754    -8465.05467656
  entropy T*S    EENTRO =        -0.00000000
  eigenvalues    EBANDS =      -650.80978020
  atomic energy  EATOM  =      8600.94477988
  ---------------------------------------------------
  free energy    TOTEN  =       -32.54757820 eV

  energy without entropy =      -32.54757820  energy(sigma->0) =      -32.54757820


--------------------------------------------------------------------------------------------------------




--------------------------------------- Iteration      1(  14)  ---------------------------------------


    TRIAL :  cpu time   65.6943: real time   67.7031
    CORREC:  cpu time   14.0661: real time   14.4365
    --------------------------------------------
      LOOP:  cpu time   79.7609: real time   82.1403

 eigenvalue-minimisations  :     0
 total energy-change (2. order) :-0.3137102E-06  (-0.1014830E-06)
 number of electron      79.9999999 magnetization 
 augmentation part       79.9999999 magnetization 

 Free energy of the ion-electron system (eV)
  ---------------------------------------------------
  alpha Z        PSCENC =       201.27973507
  Ewald energy   TEWEN  =     -5913.14810762
  -Hartree energ DENC   =     -2401.96295668
  -exchange      EXHF   =         0.00000000
  -V(xc)+E(xc)   XCENC  =       225.04139038
  PAW double counting   =      8371.16203754    -8465.05467656
  entropy T*S    EENTRO =        -0.00000000
  eigenvalues    EBANDS =      -650.80978052
  atomic energy  EATOM  =      8600.94477988
  ---------------------------------------------------
  free energy    TOTEN  =       -32.54757851 eV

  energy without entropy =      -32.54757851  energy(sigma->0) =      -32.54757851


--------------------------------------------------------------------------------------------------------




--------------------------------------- Iteration      1(  15)  ---------------------------------------


    TRIAL :  cpu time   67.7083: real time   71.8404
    CORREC:  cpu time   18.0008: real time   18.1944
    --------------------------------------------
      LOOP:  cpu time   85.7095: real time   90.0354

 eigenvalue-minimisations  :     0
 total energy-change (2. order) :-0.1014832E-06  (-0.3294009E-07)
 number of electron      79.9999999 magnetization 
 augmentation part       79.9999999 magnetization 

 Free energy of the ion-electron system (eV)
  ---------------------------------------------------
  alpha Z        PSCENC =       201.27973507
  Ewald energy   TEWEN  =     -5913.14810762
  -Hartree energ DENC   =     -2401.96295668
  -exchange      EXHF   =         0.00000000
  -V(xc)+E(xc)   XCENC  =       225.04139038
  PAW double counting   =      8371.16203754    -8465.05467656
  entropy T*S    EENTRO =        -0.00000000
  eigenvalues    EBANDS =      -650.80978062
  atomic energy  EATOM  =      8600.94477988
  ---------------------------------------------------
  free energy    TOTEN  =       -32.54757861 eV

  energy without entropy =      -32.54757861  energy(sigma->0) =      -32.54757861


--------------------------------------------------------------------------------------------------------




[...]
     34       1.4291      2.00000
     35       1.7196      2.00000
     36       1.7196      2.00000
     37       3.5016      2.00000
     38       3.5016      2.00000
     39       3.8001      2.00000
     40       3.8001      2.00000
     41       7.5153      0.00000
     42       7.5153      0.00000
     43       7.6886      0.00000
     44       7.6886      0.00000
     45       9.7139      0.00000
     46       9.7139      0.00000
     47       9.7332      0.00000
     48       9.7332      0.00000
     49      11.4091      0.00000
     50      11.4091      0.00000
     51      11.5984      0.00000
     52      11.5984      0.00000
     53      11.7404      0.00000
     54      11.7404      0.00000
     55      12.3443      0.00000
     56      12.3443      0.00000
     57      14.4095      0.00000
     58      14.4095      0.00000
     59      14.9365      0.00000
     60      14.9365      0.00000
     61      15.5863      0.00000
     62      15.5863      0.00000
     63      15.8472      0.00000
     64      15.8472      0.00000
     65      17.0858      0.00000
     66      17.0858      0.00000
     67      17.2269      0.00000
     68      17.2269      0.00000
     69      17.6067      0.00000
     70      17.6067      0.00000
     71      17.6370      0.00000
     72      17.6370      0.00000
     73      18.7913      0.00000
     74      18.7913      0.00000
     75      18.9660      0.00000
     76      18.9660      0.00000
     77      19.8978      0.00000
     78      19.8978      0.00000
     79      19.9213      0.00000
     80      19.9213      0.00000
     81      20.3138      0.00000
     82      20.3138      0.00000
     83      20.3738      0.00000
     84      20.3738      0.00000
     85      21.0979      0.00000
     86      21.0980      0.00000
     87      21.1907      0.00000
     88      21.1907      0.00000
     89      21.9188      0.00000
     90      21.9197      0.00000
     91      21.9759      0.00000
     92      21.9805      0.00000
     93      22.9086      0.00000
     94      22.9872      0.00000
     95      23.0770      0.00000
     96      23.1911      0.00000

 k-point   223 :       0.5000    0.5000    0.4444
  band No.  band energies     occupation 
      1     -16.1949      2.00000
      2     -16.1949      2.00000
      3     -16.1939      2.00000
      4     -16.1939      2.00000
      5     -16.1678      2.00000
      6     -16.1678      2.00000
      7     -16.1668      2.00000
      8     -16.1668      2.00000
      9     -16.1561      2.00000
     10     -16.1561      2.00000
     11     -16.1553      2.00000
     12     -16.1553      2.00000
     13     -16.1344      2.00000
     14     -16.1344      2.00000
     15     -16.1331      2.00000
     16     -16.1331      2.00000
     17     -16.1107      2.00000
     18     -16.1107      2.00000
     19     -16.1099      2.00000
     20     -16.1099      2.00000
     21      -7.2418      2.00000
     22      -7.2418      2.00000
     23      -7.2401      2.00000
     24      -7.2401      2.00000
     25      -1.5699      2.00000
     26      -1.5699      2.00000
     27      -1.5443      2.00000
     28      -1.5443      2.00000
     29       0.6778      2.00000
     30       0.6778      2.00000
     31       0.8229      2.00000
     32       0.8229      2.00000
     33       1.4826      2.00000
     34       1.4826      2.00000
     35       1.6335      2.00000
     36       1.6335      2.00000
     37       3.5991      2.00000
     38       3.5991      2.00000
     39       3.7512      2.00000
     40       3.7512      2.00000
     41       7.5299      0.00000
     42       7.5299      0.00000
     43       7.6200      0.00000
     44       7.6200      0.00000
     45       9.7161      0.00000
     46       9.7161      0.00000
     47       9.7248      0.00000
     48       9.7248      0.00000
     49      11.4848      0.00000
     50      11.4848      0.00000
     51      11.5696      0.00000
     52      11.5696      0.00000
     53      11.8994      0.00000
     54      11.8994      0.00000
     55      12.2284      0.00000
     56      12.2284      0.00000
     57      14.5092      0.00000
     58      14.5092      0.00000
     59      14.8017      0.00000
     60      14.8017      0.00000
     61      15.6111      0.00000
     62      15.6111      0.00000
     63      15.7259      0.00000
     64      15.7259      0.00000
     65      17.1114      0.00000
     66      17.1114      0.00000
     67      17.1849      0.00000
     68      17.1849      0.00000
     69      17.6146      0.00000
     70      17.6146      0.00000
     71      17.6307      0.00000
     72      17.6307      0.00000
     73      18.8204      0.00000
     74      18.8204      0.00000
     75      18.9078      0.00000
     76      18.9078      0.00000
     77      19.9492      0.00000
     78      19.9492      0.00000
     79      19.9604      0.00000
     80      19.9605      0.00000
     81      20.3422      0.00000
     82      20.3422      0.00000
     83      20.3689      0.00000
     84      20.3689      0.00000
     85      21.2044      0.00000
     86      21.2046      0.00000
     87      21.2813      0.00000
     88      21.2821      0.00000
     89      22.0514      0.00000
     90      22.0600      0.00000
     91      22.2062      0.00000
     92      22.2624      0.00000
     93      22.7598      0.00000
     94      22.7761      0.00000
     95      22.9031      0.00000
     96      23.0841      0.00000

 k-point   224 :       0.5000    0.5000    0.5000
  band No.  band energies     occupation 
      1     -16.1944      2.00000
      2     -16.1944      2.00000
      3     -16.1944      2.00000
      4     -16.1944      2.00000
      5     -16.1673      2.00000
      6     -16.1673      2.00000
      7     -16.1673      2.00000
      8     -16.1673      2.00000
      9     -16.1557      2.00000
     10     -16.1557      2.00000
     11     -16.1557      2.00000
     12     -16.1557      2.00000
     13     -16.1337      2.00000
     14     -16.1337      2.00000
     15     -16.1337      2.00000
     16     -16.1337      2.00000
     17     -16.1103      2.00000
     18     -16.1103      2.00000
     19     -16.1103      2.00000
     20     -16.1103      2.00000
     21      -7.2409      2.00000
     22      -7.2409      2.00000
     23      -7.2409      2.00000
     24      -7.2409      2.00000
     25      -1.5574      2.00000
     26      -1.5574      2.00000
     27      -1.5574      2.00000
     28      -1.5574      2.00000
     29       0.7505      2.00000
     30       0.7505      2.00000
     31       0.7505      2.00000
     32       0.7505      2.00000
     33       1.5529      2.00000
     34       1.5529      2.00000
     35       1.5529      2.00000
     36       1.5529      2.00000
     37       3.6835      2.00000
     38       3.6835      2.00000
     39       3.6835      2.00000
     40       3.6835      2.00000
     41       7.5657      0.00000
     42       7.5657      0.00000
     43       7.5657      0.00000
     44       7.5657      0.00000
     45       9.7194      0.00000
     46       9.7194      0.00000
     47       9.7194      0.00000
     48       9.7194      0.00000
     49      11.5335      0.00000
     50      11.5335      0.00000
     51      11.5335      0.00000
     52      11.5335      0.00000
     53      12.0723      0.00000
     54      12.0723      0.00000
     55      12.0723      0.00000
     56      12.0723      0.00000
     57      14.6494      0.00000
     58      14.6494      0.00000
     59      14.6494      0.00000
     60      14.6494      0.00000
     61      15.6528      0.00000
     62      15.6528      0.00000
     63      15.6528      0.00000
     64      15.6528      0.00000
     65      17.1454      0.00000
     66      17.1454      0.00000
     67      17.1454      0.00000
     68      17.1454      0.00000
     69      17.6230      0.00000
     70      17.6230      0.00000
     71      17.6230      0.00000
     72      17.6230      0.00000
     73      18.8591      0.00000
     74      18.8591      0.00000
     75      18.8591      0.00000
     76      18.8591      0.00000
     77      19.9707      0.00000
     78      19.9707      0.00000
     79      19.9707      0.00000
     80      19.9708      0.00000
     81      20.3570      0.00000
     82      20.3570      0.00000
     83      20.3571      0.00000
     84      20.3571      0.00000
     85      21.2766      0.00000
     86      21.2766      0.00000
     87      21.2768      0.00000
     88      21.2785      0.00000
     89      22.2245      0.00000
     90      22.2302      0.00000
     91      22.2395      0.00000
     92      22.3153      0.00000
     93      22.7058      0.00000
     94      22.7266      0.00000
     95      22.8785      0.00000
     96      22.9897      0.00000


--------------------------------------------------------------------------------------------------------


 soft charge-density along one line, spin component           1
         0         1         2         3         4         5         6         7         8         9
 total charge-density along one line

 pseudopotential strength for first ion, spin component:           1
-17.658  -0.000  -0.000   0.015   0.000   3.559   0.000   0.000
 -0.000 -17.646   0.006   0.000  -0.014   0.000   3.552  -0.003
 -0.000   0.006 -17.636   0.000   0.001   0.000  -0.003   3.548
  0.015   0.000   0.000 -17.647  -0.000  -0.007  -0.000  -0.000
  0.000  -0.014   0.001  -0.000 -17.664  -0.000   0.007  -0.000
  3.559   0.000   0.000  -0.007  -0.000   4.167  -0.000  -0.000
  0.000   3.552  -0.003  -0.000   0.007  -0.000   4.171   0.002
  0.000  -0.003   3.548  -0.000  -0.000  -0.000   0.002   4.171
 -0.007  -0.000  -0.000   3.553   0.000   0.003   0.000  -0.000
 -0.000   0.007  -0.000   0.000   3.561  -0.000  -0.003   0.000
  0.000   0.001   0.000  -0.000   0.000  -0.000  -0.002  -0.002
 -0.000  -0.003  -0.002   0.000  -0.000   0.000   0.004   0.003
 -0.000   0.013  -0.006   0.000  -0.011   0.000   0.001   0.000
  0.000   0.011   0.015  -0.000   0.000  -0.000   0.002   0.001
  0.011   0.000   0.000   0.013  -0.000  -0.000  -0.000   0.000
 -0.000   0.020  -0.010   0.000  -0.017   0.000   0.003  -0.000
  0.000   0.017   0.023  -0.000   0.000  -0.000   0.004   0.002
  0.017   0.000   0.000   0.020  -0.000   0.000  -0.000   0.000
 total augmentation occupancy for first ion, spin component:           1
  2.000   0.000   0.000   0.000   0.000   0.000   0.000   0.000   0.000   0.000   0.000   0.000   0.000   0.000   0.000   0.000
  0.000   2.000   0.000   0.000   0.000   0.000   0.000   0.000   0.000   0.000   0.000   0.000   0.000   0.000   0.000   0.000
  0.000   0.000   2.000   0.000   0.000   0.000   0.000   0.000   0.000   0.000   0.000   0.000   0.000   0.000   0.000   0.000
  0.000   0.000   0.000   2.000   0.000   0.000   0.000   0.000   0.000   0.000   0.000   0.000   0.000   0.000   0.000   0.000
  0.000   0.000   0.000   0.000   2.000   0.000   0.000   0.000   0.000   0.000   0.000   0.000   0.000   0.000   0.000   0.000
  0.000   0.000   0.000   0.000   0.000   0.000   0.000   0.000   0.000   0.000   0.000   0.000   0.000   0.000   0.000   0.000
  0.000   0.000   0.000   0.000   0.000   0.000   0.000   0.000   0.000   0.000   0.000   0.000   0.000   0.000   0.000   0.000
  0.000   0.000   0.000   0.000   0.000   0.000   0.000   0.000   0.000   0.000   0.000   0.000   0.000   0.000   0.000   0.000
  0.000   0.000   0.000   0.000   0.000   0.000   0.000   0.000   0.000   0.000   0.000   0.000   0.000   0.000   0.000   0.000
  0.000   0.000   0.000   0.000   0.000   0.000   0.000   0.000   0.000   0.000   0.000   0.000   0.000   0.000   0.000   0.000
  0.000   0.000   0.000   0.000   0.000   0.000   0.000   0.000   0.000   0.000   2.000   0.000   0.000   0.000   0.000   0.000
  0.000   0.000   0.000   0.000   0.000   0.000   0.000   0.000   0.000   0.000   0.000   0.000   0.000   0.000   0.000   0.000
  0.000   0.000   0.000   0.000   0.000   0.000   0.000   0.000   0.000   0.000   0.000   0.000   0.667   0.000   0.000   0.000
  0.000   0.000   0.000   0.000   0.000   0.000   0.000   0.000   0.000   0.000   0.000   0.000   0.000   0.667   0.000   0.000
  0.000   0.000   0.000   0.000   0.000   0.000   0.000   0.000   0.000   0.000   0.000   0.000   0.000   0.000   0.667   0.000
  0.000   0.000   0.000   0.000   0.000   0.000   0.000   0.000   0.000   0.000   0.000   0.000   0.000   0.000   0.000   0.000
  0.000   0.000   0.000   0.000   0.000   0.000   0.000   0.000   0.000   0.000   0.000   0.000   0.000   0.000   0.000   0.000
  0.000   0.000   0.000   0.000   0.000   0.000   0.000   0.000   0.000   0.000   0.000   0.000   0.000   0.000   0.000   0.000


------------------------ aborting loop because EDIFF is reached ----------------------------------------


    CHARGE:  cpu time    2.4365: real time    2.4572
    FORLOC:  cpu time    0.0117: real time    0.0117
    FORNL :  cpu time   45.3463: real time   46.6890
    STRESS:  cpu time   46.3438: real time   47.9095
    FORCOR:  cpu time    0.1545: real time    0.1546
    FORHAR:  cpu time    0.0339: real time    0.0342
    OFIELD:  cpu time    0.0005: real time    0.0005

 ---------------------------------------------------------------------------------------------

         DFTD3 V3.0 Rev 1        
 IVDW         = 11
 DF pbe       
 parameters
 VDW_S6       =    1.0000
 VDW_S8       =    0.7220
 VDW_SR       =    1.2170
 rs18     =    1.0000
 alpha6   =   14.0000
 alpha8   =   16.0000
 k1-k3    =   16.0000    1.3333   -4.0000
 VDW_RADIUS   =   50.2022 A
 VDW_CNRADIUS =   21.1671 A
 Edisp (eV)   -1.76161

 E6    (eV) :    -0.7196
 E8    (eV) :    -1.0420
 % E8        : 59.15
    FORVDW:  cpu time    0.0854: real time    0.1057

  FORCE on cell =-STRESS in cart. coord.  units (eV):
  Direction    XX          YY          ZZ          XY          YZ          ZX
  --------------------------------------------------------------------------------------
  Alpha Z   201.27974   201.27974   201.27974
  Ewald   -1878.35701 -2129.77244 -1905.02620    -0.00000     0.00000     0.00000
  Hartree   862.34639   687.12328   851.49813     0.00000    -0.00000    -0.00000
  E(xc)    -371.04999  -371.10776  -371.04935    -0.00000    -0.00000     0.00000
  Local    -606.72149  -181.59368  -577.42117    -0.00000    -0.00000    -0.00000
  n-local   446.87785   444.54176   450.21562    -0.00000     0.00000     0.00000
  augment   696.43238   696.80200   695.80697    -0.00000     0.00000     0.00000
  Kinetic   651.94546   653.82650   653.72219    -0.00000    -0.00000    -0.00000
  Fock        0.00000     0.00000     0.00000     0.00000     0.00000     0.00000
  vdW        -1.42869    -1.21082    -1.35597     0.00000    -0.00000     0.00000
  -------------------------------------------------------------------------------------
  Total       1.32462    -0.11142    -2.33005     0.00000     0.00000     0.00000
  in kB       9.66554    -0.81302   -17.00204     0.00000     0.00000     0.00000
  external pressure =       -2.72 kB  Pullay stress =        0.00 kB


 VOLUME and BASIS-vectors are now :
 -----------------------------------------------------------------------------
  energy-cutoff  :      600.00
  volume of cell :      219.57
      direct lattice vectors                 reciprocal lattice vectors
     4.170369740  0.000000000  0.000000000     0.239786892  0.000000000  0.000000000
     0.000000000  4.546429930  0.000000000     0.000000000  0.219952802  0.000000000
     0.000000000  0.000000000 11.580579620     0.000000000  0.000000000  0.086351464

  length of vectors
     4.170369740  4.546429930 11.580579620     0.239786892  0.219952802  0.086351464


 FORCES acting on ions
    electron-ion (+dipol)            ewald-force                    non-local-force                 convergence-correction
 -----------------------------------------------------------------------------------------------
   0.542E-11 0.132E+02 0.955E+01   0.890E-14 -.192E+02 -.180E+02   0.000E+00 0.765E+01 0.961E+01   0.107E-12 -.156E+01 -.107E+01
   0.622E-11 -.132E+02 -.955E+01   -.118E-13 0.192E+02 0.180E+02   0.141E-22 -.765E+01 -.961E+01   0.251E-12 0.156E+01 0.107E+01
   0.107E-10 0.132E+02 -.955E+01   0.917E-14 -.192E+02 0.180E+02   -.397E-22 0.765E+01 -.961E+01   0.179E-12 -.156E+01 0.107E+01
   0.990E-11 -.132E+02 0.955E+01   -.151E-13 0.192E+02 -.180E+02   0.265E-22 -.765E+01 0.961E+01   -.408E-12 0.156E+01 -.107E+01
   0.794E-11 -.331E+02 0.293E+02   -.149E-14 0.332E+02 -.301E+02   0.000E+00 -.514E+00 0.105E+01   -.112E-11 0.288E+00 -.208E+00
   0.792E-11 0.331E+02 -.293E+02   -.785E-14 -.332E+02 0.301E+02   0.000E+00 0.514E+00 -.105E+01   -.122E-11 -.288E+00 0.208E+00
   0.860E-11 -.331E+02 -.293E+02   0.208E-14 0.332E+02 0.301E+02   0.000E+00 -.514E+00 -.105E+01   -.913E-12 0.288E+00 0.208E+00
   0.862E-11 0.331E+02 0.293E+02   -.140E-15 -.332E+02 -.301E+02   0.000E+00 0.514E+00 0.105E+01   -.853E-12 -.288E+00 -.208E+00
 -----------------------------------------------------------------------------------------------
   0.654E-10 -.171E-09 -.376E-10   -.162E-13 0.711E-14 0.639E-13   0.827E-24 -.888E-15 0.000E+00   -.398E-11 0.289E-10 0.152E-10


 POSITION                                       TOTAL-FORCE (eV/Angst)
 -----------------------------------------------------------------------------------
      1.04259      0.51229      1.35289        -0.000000      0.114599      0.072368
      3.12778      4.03414     10.22769        -0.000000     -0.114599     -0.072368
      3.12778      2.78551      4.43740         0.000000      0.114599     -0.072368
      1.04259      1.76092      7.14318         0.000000     -0.114599      0.072368
      3.12778      2.35862      1.68142         0.000000     -0.139980      0.070808
      1.04259      2.18781      9.89916        -0.000000      0.139980     -0.070808
      1.04259      0.08541      4.10887         0.000000     -0.139980     -0.070808
      3.12778      4.46102      7.47171         0.000000      0.139980      0.070808
 -----------------------------------------------------------------------------------
    total drift:                                0.000000     -0.000000     -0.000000


--------------------------------------------------------------------------------------------------------



  FREE ENERGIE OF THE ION-ELECTRON SYSTEM (eV)
  ---------------------------------------------------
  free  energy   TOTEN  =       -34.30918753 eV

  energy  without entropy=      -34.30918753  energy(sigma->0) =      -34.30918753



--------------------------------------------------------------------------------------------------------


    POTLOK:  cpu time    0.2273: real time    0.2276


--------------------------------------------------------------------------------------------------------


     LOOP+:  cpu time 1623.2563: real time 1685.3797
    4ORBIT:  cpu time    0.0000: real time    0.0000

 total amount of memory used by VASP MPI-rank0  1264948. kBytes
=======================================================================

   base      :      30000. kBytes
   nonl-proj :     238133. kBytes
   fftplans  :      20075. kBytes
   grid      :       9517. kBytes
   one-center:         62. kBytes
   wavefun   :     967161. kBytes

  
  
 General timing and accounting informations for this job:
 ========================================================
  
                  Total CPU time used (sec):     1647.639
                            User time (sec):     1600.873
                          System time (sec):       46.767
                         Elapsed time (sec):     1711.129
  
                   Maximum memory used (kb):     1350604.
                   Average memory used (kb):           0.
  
                          Minor page faults:      6363674
                          Major page faults:            0
                 Voluntary context switches:        12669
