<?xml version="1.0" encoding="ISO-8859-1"?>
<modeling>
 <generator>
  <i name="program" type="string">vasp </i>
  <i name="version" type="string">5.4.4.18Apr17-6-g9f103f2a35  </i>
  <i name="subversion" type="string">(build Mar 20 2018 18:01:20) complex            parallel </i>
  <i name="platform" type="string">LinuxGNU </i>
  <i name="date" type="string">2020 07 13 </i>
  <i name="time" type="string">19:24:31 </i>
 </generator>
 <incar>
  <i type="string" name="SYSTEM"> SnSe</i>
  <i type="int" name="ISTART">     1</i>
  <i type="string" name="PREC">accurate</i>
  <i type="string" name="ALGO"> A</i>
  <i type="logical" name="ADDGRID"> T  </i>
  <i type="int" name="ISPIN">     1</i>
  <i type="int" name="ICHARG">    11</i>
  <i type="int" name="IBRION">    -1</i>
  <i name="EDIFF">      0.00000010</i>
  <i name="EDIFFG">     -0.00100000</i>
  <i type="int" name="NSW">     0</i>
  <i name="ENCUT">    600.00000000</i>
  <i type="int" name="NBANDS">    96</i>
  <i type="logical" name="LREAL"> F  </i>
  <i type="logical" name="LPLANE"> T  </i>
  <i type="int" name="ISMEAR">     0</i>
  <i name="SIGMA">      0.01000000</i>
  <i type="int" name="LMAXMIX">     4</i>
  <i type="logical" name="LWAVE"> F  </i>
  <i type="logical" name="LCHARG"> F  </i>
  <v type="int" name="KPOINT_BSE">    -1     0     0     0</v>
 </incar>
 <structure name="primitive_cell" >
  <crystal>
   <varray name="basis" >
    <v>       4.17036974       0.00000000       0.00000000 </v>
    <v>       0.00000000       4.54642993       0.00000000 </v>
    <v>       0.00000000       0.00000000      11.58057962 </v>
   </varray>
   <i name="volume">    219.57119203 </i>
   <varray name="rec_basis" >
    <v>       0.23978689       0.00000000       0.00000000 </v>
    <v>       0.00000000       0.21995280       0.00000000 </v>
    <v>       0.00000000       0.00000000       0.08635146 </v>
   </varray>
  </crystal>
  <varray name="positions" >
   <v>       0.25000000       0.11267971       0.11682412 </v>
   <v>       0.25000000       0.01878540       0.35480696 </v>
   <v>      -0.25000000      -0.48121460       0.14519304 </v>
   <v>       0.25000000       0.48121460      -0.14519304 </v>
   <v>      -0.25000000      -0.11267971      -0.11682412 </v>
   <v>      -0.25000000      -0.38732029       0.38317588 </v>
   <v>      -0.25000000      -0.01878540      -0.35480696 </v>
   <v>       0.25000000       0.38732029      -0.38317588 </v>
  </varray>
 </structure>
 <varray name="primitive_index" >
  <v type="int" >        1 </v>
  <v type="int" >        7 </v>
  <v type="int" >        5 </v>
  <v type="int" >        6 </v>
  <v type="int" >        2 </v>
  <v type="int" >        3 </v>
  <v type="int" >        8 </v>
  <v type="int" >        4 </v>
 </varray>
 <kpoints>
  <varray name="kpointlist" >
   <v>       0.00000000       0.00000000       0.00000000 </v>
   <v>       0.02173913       0.00000000       0.00000000 </v>
   <v>       0.04347826       0.00000000       0.00000000 </v>
   <v>       0.06521739       0.00000000       0.00000000 </v>
   <v>       0.08695652       0.00000000       0.00000000 </v>
   <v>       0.10869565       0.00000000       0.00000000 </v>
   <v>       0.13043478       0.00000000       0.00000000 </v>
   <v>       0.15217391       0.00000000       0.00000000 </v>
   <v>       0.17391304       0.00000000       0.00000000 </v>
   <v>       0.19565217       0.00000000       0.00000000 </v>
   <v>       0.21739130       0.00000000       0.00000000 </v>
   <v>       0.23913043       0.00000000       0.00000000 </v>
   <v>       0.26086957       0.00000000       0.00000000 </v>
   <v>       0.28260870       0.00000000       0.00000000 </v>
   <v>       0.30434783       0.00000000       0.00000000 </v>
   <v>       0.32608696       0.00000000       0.00000000 </v>
   <v>       0.34782609       0.00000000       0.00000000 </v>
   <v>       0.36956522       0.00000000       0.00000000 </v>
   <v>       0.39130435       0.00000000       0.00000000 </v>
   <v>       0.41304348       0.00000000       0.00000000 </v>
   <v>       0.43478261       0.00000000       0.00000000 </v>
   <v>       0.45652174       0.00000000       0.00000000 </v>
   <v>       0.47826087       0.00000000       0.00000000 </v>
   <v>       0.50000000       0.00000000       0.00000000 </v>
   <v>       0.50000000       0.00000000       0.00000000 </v>
   <v>       0.50000000       0.02380952       0.00000000 </v>
   <v>       0.50000000       0.04761905       0.00000000 </v>
   <v>       0.50000000       0.07142857       0.00000000 </v>
   <v>       0.50000000       0.09523810       0.00000000 </v>
   <v>       0.50000000       0.11904762       0.00000000 </v>
   <v>       0.50000000       0.14285714       0.00000000 </v>
   <v>       0.50000000       0.16666667       0.00000000 </v>
   <v>       0.50000000       0.19047619       0.00000000 </v>
   <v>       0.50000000       0.21428571       0.00000000 </v>
   <v>       0.50000000       0.23809524       0.00000000 </v>
   <v>       0.50000000       0.26190476       0.00000000 </v>
   <v>       0.50000000       0.28571429       0.00000000 </v>
   <v>       0.50000000       0.30952381       0.00000000 </v>
   <v>       0.50000000       0.33333333       0.00000000 </v>
   <v>       0.50000000       0.35714286       0.00000000 </v>
   <v>       0.50000000       0.38095238       0.00000000 </v>
   <v>       0.50000000       0.40476190       0.00000000 </v>
   <v>       0.50000000       0.42857143       0.00000000 </v>
   <v>       0.50000000       0.45238095       0.00000000 </v>
   <v>       0.50000000       0.47619048       0.00000000 </v>
   <v>       0.50000000       0.50000000       0.00000000 </v>
   <v>       0.50000000       0.50000000       0.00000000 </v>
   <v>       0.47826087       0.50000000       0.00000000 </v>
   <v>       0.45652174       0.50000000       0.00000000 </v>
   <v>       0.43478261       0.50000000       0.00000000 </v>
   <v>       0.41304348       0.50000000       0.00000000 </v>
   <v>       0.39130435       0.50000000       0.00000000 </v>
   <v>       0.36956522       0.50000000       0.00000000 </v>
   <v>       0.34782609       0.50000000       0.00000000 </v>
   <v>       0.32608696       0.50000000       0.00000000 </v>
   <v>       0.30434783       0.50000000       0.00000000 </v>
   <v>       0.28260870       0.50000000       0.00000000 </v>
   <v>       0.26086957       0.50000000       0.00000000 </v>
   <v>       0.23913043       0.50000000       0.00000000 </v>
   <v>       0.21739130       0.50000000       0.00000000 </v>
   <v>       0.19565217       0.50000000       0.00000000 </v>
   <v>       0.17391304       0.50000000       0.00000000 </v>
   <v>       0.15217391       0.50000000       0.00000000 </v>
   <v>       0.13043478       0.50000000       0.00000000 </v>
   <v>       0.10869565       0.50000000       0.00000000 </v>
   <v>       0.08695652       0.50000000       0.00000000 </v>
   <v>       0.06521739       0.50000000       0.00000000 </v>
   <v>       0.04347826       0.50000000       0.00000000 </v>
   <v>       0.02173913       0.50000000       0.00000000 </v>
   <v>       0.00000000       0.50000000       0.00000000 </v>
   <v>       0.00000000       0.50000000       0.00000000 </v>
   <v>       0.00000000       0.47619048       0.00000000 </v>
   <v>       0.00000000       0.45238095       0.00000000 </v>
   <v>       0.00000000       0.42857143       0.00000000 </v>
   <v>       0.00000000       0.40476190       0.00000000 </v>
   <v>       0.00000000       0.38095238       0.00000000 </v>
   <v>       0.00000000       0.35714286       0.00000000 </v>
   <v>       0.00000000       0.33333333       0.00000000 </v>
   <v>       0.00000000       0.30952381       0.00000000 </v>
   <v>       0.00000000       0.28571429       0.00000000 </v>
   <v>       0.00000000       0.26190476       0.00000000 </v>
   <v>       0.00000000       0.23809524       0.00000000 </v>
   <v>       0.00000000       0.21428571       0.00000000 </v>
   <v>       0.00000000       0.19047619       0.00000000 </v>
   <v>       0.00000000       0.16666667       0.00000000 </v>
   <v>       0.00000000       0.14285714       0.00000000 </v>
   <v>       0.00000000       0.11904762       0.00000000 </v>
   <v>       0.00000000       0.09523810       0.00000000 </v>
   <v>       0.00000000       0.07142857       0.00000000 </v>
   <v>       0.00000000       0.04761905       0.00000000 </v>
   <v>       0.00000000       0.02380952       0.00000000 </v>
   <v>       0.00000000       0.00000000       0.00000000 </v>
   <v>       0.00000000       0.00000000       0.00000000 </v>
   <v>       0.00000000       0.00000000       0.05555556 </v>
   <v>       0.00000000       0.00000000       0.11111111 </v>
   <v>       0.00000000       0.00000000       0.16666667 </v>
   <v>       0.00000000       0.00000000       0.22222222 </v>
   <v>       0.00000000       0.00000000       0.27777778 </v>
   <v>       0.00000000       0.00000000       0.33333333 </v>
   <v>      -0.00000000       0.00000000       0.38888889 </v>
   <v>       0.00000000       0.00000000       0.44444444 </v>
   <v>       0.00000000       0.00000000       0.50000000 </v>
   <v>       0.00000000       0.00000000       0.50000000 </v>
   <v>       0.02173913       0.00000000       0.50000000 </v>
   <v>       0.04347826      -0.00000000       0.50000000 </v>
   <v>       0.06521739       0.00000000       0.50000000 </v>
   <v>       0.08695652       0.00000000       0.50000000 </v>
   <v>       0.10869565       0.00000000       0.50000000 </v>
   <v>       0.13043478       0.00000000       0.50000000 </v>
   <v>       0.15217391       0.00000000       0.50000000 </v>
   <v>       0.17391304       0.00000000       0.50000000 </v>
   <v>       0.19565217       0.00000000       0.50000000 </v>
   <v>       0.21739130       0.00000000       0.50000000 </v>
   <v>       0.23913043       0.00000000       0.50000000 </v>
   <v>       0.26086957       0.00000000       0.50000000 </v>
   <v>       0.28260870       0.00000000       0.50000000 </v>
   <v>       0.30434783       0.00000000       0.50000000 </v>
   <v>       0.32608696      -0.00000000       0.50000000 </v>
   <v>       0.34782609      -0.00000000       0.50000000 </v>
   <v>       0.36956522       0.00000000       0.50000000 </v>
   <v>       0.39130435       0.00000000       0.50000000 </v>
   <v>       0.41304348      -0.00000000       0.50000000 </v>
   <v>       0.43478261       0.00000000       0.50000000 </v>
   <v>       0.45652174       0.00000000       0.50000000 </v>
   <v>       0.47826087       0.00000000       0.50000000 </v>
   <v>       0.50000000       0.00000000       0.50000000 </v>
   <v>       0.50000000       0.00000000       0.50000000 </v>
   <v>       0.50000000       0.02380952       0.50000000 </v>
   <v>       0.50000000       0.04761905       0.50000000 </v>
   <v>       0.50000000       0.07142857       0.50000000 </v>
   <v>       0.50000000       0.09523810       0.50000000 </v>
   <v>       0.50000000       0.11904762       0.50000000 </v>
   <v>       0.50000000       0.14285714       0.50000000 </v>
   <v>       0.50000000       0.16666667       0.50000000 </v>
   <v>       0.50000000       0.19047619       0.50000000 </v>
   <v>       0.50000000       0.21428571       0.50000000 </v>
   <v>       0.50000000       0.23809524       0.50000000 </v>
   <v>       0.50000000       0.26190476       0.50000000 </v>
   <v>       0.50000000       0.28571429       0.50000000 </v>
   <v>       0.50000000       0.30952381       0.50000000 </v>
   <v>       0.50000000       0.33333333       0.50000000 </v>
   <v>       0.50000000       0.35714286       0.50000000 </v>
   <v>       0.50000000       0.38095238       0.50000000 </v>
   <v>       0.50000000       0.40476190       0.50000000 </v>
   <v>       0.50000000       0.42857143       0.50000000 </v>
   <v>       0.50000000       0.45238095       0.50000000 </v>
   <v>       0.50000000       0.47619048       0.50000000 </v>
   <v>       0.50000000       0.50000000       0.50000000 </v>
   <v>       0.50000000       0.50000000       0.50000000 </v>
   <v>       0.47826087       0.50000000       0.50000000 </v>
   <v>       0.45652174       0.50000000       0.50000000 </v>
   <v>       0.43478261       0.50000000       0.50000000 </v>
   <v>       0.41304348       0.50000000       0.50000000 </v>
   <v>       0.39130435       0.50000000       0.50000000 </v>
   <v>       0.36956522       0.50000000       0.50000000 </v>
   <v>       0.34782609       0.50000000       0.50000000 </v>
   <v>       0.32608696       0.50000000       0.50000000 </v>
   <v>       0.30434783       0.50000000       0.50000000 </v>
   <v>       0.28260870       0.50000000       0.50000000 </v>
   <v>       0.26086957       0.50000000       0.50000000 </v>
   <v>       0.23913043       0.50000000       0.50000000 </v>
   <v>       0.21739130       0.50000000       0.50000000 </v>
   <v>       0.19565217       0.50000000       0.50000000 </v>
   <v>       0.17391304       0.50000000       0.50000000 </v>
   <v>       0.15217391       0.50000000       0.50000000 </v>
   <v>       0.13043478       0.50000000       0.50000000 </v>
   <v>       0.10869565       0.50000000       0.50000000 </v>
   <v>       0.08695652       0.50000000       0.50000000 </v>
   <v>       0.06521739       0.50000000       0.50000000 </v>
   <v>       0.04347826       0.50000000       0.50000000 </v>
   <v>       0.02173913       0.50000000       0.50000000 </v>
   <v>       0.00000000       0.50000000       0.50000000 </v>
   <v>       0.00000000       0.50000000       0.50000000 </v>
   <v>       0.00000000       0.47619048       0.50000000 </v>
   <v>       0.00000000       0.45238095       0.50000000 </v>
   <v>       0.00000000       0.42857143       0.50000000 </v>
   <v>       0.00000000       0.40476190       0.50000000 </v>
   <v>       0.00000000       0.38095238       0.50000000 </v>
   <v>       0.00000000       0.35714286       0.50000000 </v>
   <v>       0.00000000       0.33333333       0.50000000 </v>
   <v>       0.00000000       0.30952381       0.50000000 </v>
   <v>       0.00000000       0.28571429       0.50000000 </v>
   <v>       0.00000000       0.26190476       0.50000000 </v>
   <v>       0.00000000       0.23809524       0.50000000 </v>
   <v>       0.00000000       0.21428571       0.50000000 </v>
   <v>       0.00000000       0.19047619       0.50000000 </v>
   <v>       0.00000000       0.16666667       0.50000000 </v>
   <v>       0.00000000       0.14285714       0.50000000 </v>
   <v>       0.00000000       0.11904762       0.50000000 </v>
   <v>       0.00000000       0.09523810       0.50000000 </v>
   <v>       0.00000000       0.07142857       0.50000000 </v>
   <v>       0.00000000       0.04761905       0.50000000 </v>
   <v>       0.00000000       0.02380952       0.50000000 </v>
   <v>       0.00000000       0.00000000       0.50000000 </v>
   <v>       0.00000000       0.50000000       0.00000000 </v>
   <v>       0.00000000       0.50000000       0.05555556 </v>
   <v>       0.00000000       0.50000000       0.11111111 </v>
   <v>       0.00000000       0.50000000       0.16666667 </v>
   <v>       0.00000000       0.50000000       0.22222222 </v>
   <v>       0.00000000       0.50000000       0.27777778 </v>
   <v>       0.00000000       0.50000000       0.33333333 </v>
   <v>      -0.00000000       0.50000000       0.38888889 </v>
   <v>       0.00000000       0.50000000       0.44444444 </v>
   <v>       0.00000000       0.50000000       0.50000000 </v>
   <v>       0.50000000       0.00000000       0.50000000 </v>
   <v>       0.50000000      -0.00000000       0.44444444 </v>
   <v>       0.50000000      -0.00000000       0.38888889 </v>
   <v>       0.50000000       0.00000000       0.33333333 </v>
   <v>       0.50000000      -0.00000000       0.27777778 </v>
   <v>       0.50000000       0.00000000       0.22222222 </v>
   <v>       0.50000000       0.00000000       0.16666667 </v>
   <v>       0.50000000       0.00000000       0.11111111 </v>
   <v>       0.50000000      -0.00000000       0.05555556 </v>
   <v>       0.50000000       0.00000000       0.00000000 </v>
   <v>       0.50000000       0.50000000       0.00000000 </v>
   <v>       0.50000000       0.50000000       0.05555556 </v>
   <v>       0.50000000       0.50000000       0.11111111 </v>
   <v>       0.50000000       0.50000000       0.16666667 </v>
   <v>       0.50000000       0.50000000       0.22222222 </v>
   <v>       0.50000000       0.50000000       0.27777778 </v>
   <v>       0.50000000       0.50000000       0.33333333 </v>
   <v>       0.50000000       0.50000000       0.38888889 </v>
   <v>       0.50000000       0.50000000       0.44444444 </v>
   <v>       0.50000000       0.50000000       0.50000000 </v>
  </varray>
  <varray name="weights" >
   <v>       0.00446429 </v>
   <v>       0.00446429 </v>
   <v>       0.00446429 </v>
   <v>       0.00446429 </v>
   <v>       0.00446429 </v>
   <v>       0.00446429 </v>
   <v>       0.00446429 </v>
   <v>       0.00446429 </v>
   <v>       0.00446429 </v>
   <v>       0.00446429 </v>
   <v>       0.00446429 </v>
   <v>       0.00446429 </v>
   <v>       0.00446429 </v>
   <v>       0.00446429 </v>
   <v>       0.00446429 </v>
   <v>       0.00446429 </v>
   <v>       0.00446429 </v>
   <v>       0.00446429 </v>
   <v>       0.00446429 </v>
   <v>       0.00446429 </v>
   <v>       0.00446429 </v>
   <v>       0.00446429 </v>
   <v>       0.00446429 </v>
   <v>       0.00446429 </v>
   <v>       0.00446429 </v>
   <v>       0.00446429 </v>
   <v>       0.00446429 </v>
   <v>       0.00446429 </v>
   <v>       0.00446429 </v>
   <v>       0.00446429 </v>
   <v>       0.00446429 </v>
   <v>       0.00446429 </v>
   <v>       0.00446429 </v>
   <v>       0.00446429 </v>
   <v>       0.00446429 </v>
   <v>       0.00446429 </v>
   <v>       0.00446429 </v>
   <v>       0.00446429 </v>
   <v>       0.00446429 </v>
   <v>       0.00446429 </v>
   <v>       0.00446429 </v>
   <v>       0.00446429 </v>
   <v>       0.00446429 </v>
   <v>       0.00446429 </v>
   <v>       0.00446429 </v>
   <v>       0.00446429 </v>
   <v>       0.00446429 </v>
   <v>       0.00446429 </v>
   <v>       0.00446429 </v>
   <v>       0.00446429 </v>
   <v>       0.00446429 </v>
   <v>       0.00446429 </v>
   <v>       0.00446429 </v>
   <v>       0.00446429 </v>
   <v>       0.00446429 </v>
   <v>       0.00446429 </v>
   <v>       0.00446429 </v>
   <v>       0.00446429 </v>
   <v>       0.00446429 </v>
   <v>       0.00446429 </v>
   <v>       0.00446429 </v>
   <v>       0.00446429 </v>
   <v>       0.00446429 </v>
   <v>       0.00446429 </v>
   <v>       0.00446429 </v>
   <v>       0.00446429 </v>
   <v>       0.00446429 </v>
   <v>       0.00446429 </v>
   <v>       0.00446429 </v>
   <v>       0.00446429 </v>
   <v>       0.00446429 </v>
   <v>       0.00446429 </v>
   <v>       0.00446429 </v>
   <v>       0.00446429 </v>
   <v>       0.00446429 </v>
   <v>       0.00446429 </v>
   <v>       0.00446429 </v>
   <v>       0.00446429 </v>
   <v>       0.00446429 </v>
   <v>       0.00446429 </v>
   <v>       0.00446429 </v>
   <v>       0.00446429 </v>
   <v>       0.00446429 </v>
   <v>       0.00446429 </v>
   <v>       0.00446429 </v>
   <v>       0.00446429 </v>
   <v>       0.00446429 </v>
   <v>       0.00446429 </v>
   <v>       0.00446429 </v>
   <v>       0.00446429 </v>
   <v>       0.00446429 </v>
   <v>       0.00446429 </v>
   <v>       0.00446429 </v>
   <v>       0.00446429 </v>
   <v>       0.00446429 </v>
   <v>       0.00446429 </v>
   <v>       0.00446429 </v>
   <v>       0.00446429 </v>
   <v>       0.00446429 </v>
   <v>       0.00446429 </v>
   <v>       0.00446429 </v>
   <v>       0.00446429 </v>
   <v>       0.00446429 </v>
   <v>       0.00446429 </v>
   <v>       0.00446429 </v>
   <v>       0.00446429 </v>
   <v>       0.00446429 </v>
   <v>       0.00446429 </v>
   <v>       0.00446429 </v>
   <v>       0.00446429 </v>
   <v>       0.00446429 </v>
   <v>       0.00446429 </v>
   <v>       0.00446429 </v>
   <v>       0.00446429 </v>
   <v>       0.00446429 </v>
   <v>       0.00446429 </v>
   <v>       0.00446429 </v>
   <v>       0.00446429 </v>
   <v>       0.00446429 </v>
   <v>       0.00446429 </v>
   <v>       0.00446429 </v>
   <v>       0.00446429 </v>
   <v>       0.00446429 </v>
   <v>       0.00446429 </v>
   <v>       0.00446429 </v>
   <v>       0.00446429 </v>
   <v>       0.00446429 </v>
   <v>       0.00446429 </v>
   <v>       0.00446429 </v>
   <v>       0.00446429 </v>
   <v>       0.00446429 </v>
   <v>       0.00446429 </v>
   <v>       0.00446429 </v>
   <v>       0.00446429 </v>
   <v>       0.00446429 </v>
   <v>       0.00446429 </v>
   <v>       0.00446429 </v>
   <v>       0.00446429 </v>
   <v>       0.00446429 </v>
   <v>       0.00446429 </v>
   <v>       0.00446429 </v>
   <v>       0.00446429 </v>
   <v>       0.00446429 </v>
   <v>       0.00446429 </v>
   <v>       0.00446429 </v>
   <v>       0.00446429 </v>
   <v>       0.00446429 </v>
   <v>       0.00446429 </v>
   <v>       0.00446429 </v>
   <v>       0.00446429 </v>
   <v>       0.00446429 </v>
   <v>       0.00446429 </v>
   <v>       0.00446429 </v>
   <v>       0.00446429 </v>
   <v>       0.00446429 </v>
   <v>       0.00446429 </v>
   <v>       0.00446429 </v>
   <v>       0.00446429 </v>
   <v>       0.00446429 </v>
   <v>       0.00446429 </v>
   <v>       0.00446429 </v>
   <v>       0.00446429 </v>
   <v>       0.00446429 </v>
   <v>       0.00446429 </v>
   <v>       0.00446429 </v>
   <v>       0.00446429 </v>
   <v>       0.00446429 </v>
   <v>       0.00446429 </v>
   <v>       0.00446429 </v>
   <v>       0.00446429 </v>
   <v>       0.00446429 </v>
   <v>       0.00446429 </v>
   <v>       0.00446429 </v>
   <v>       0.00446429 </v>
   <v>       0.00446429 </v>
   <v>       0.00446429 </v>
   <v>       0.00446429 </v>
   <v>       0.00446429 </v>
   <v>       0.00446429 </v>
   <v>       0.00446429 </v>
   <v>       0.00446429 </v>
   <v>       0.00446429 </v>
   <v>       0.00446429 </v>
   <v>       0.00446429 </v>
   <v>       0.00446429 </v>
   <v>       0.00446429 </v>
   <v>       0.00446429 </v>
   <v>       0.00446429 </v>
   <v>       0.00446429 </v>
   <v>       0.00446429 </v>
   <v>       0.00446429 </v>
   <v>       0.00446429 </v>
   <v>       0.00446429 </v>
   <v>       0.00446429 </v>
   <v>       0.00446429 </v>
   <v>       0.00446429 </v>
   <v>       0.00446429 </v>
   <v>       0.00446429 </v>
   <v>       0.00446429 </v>
   <v>       0.00446429 </v>
   <v>       0.00446429 </v>
   <v>       0.00446429 </v>
   <v>       0.00446429 </v>
   <v>       0.00446429 </v>
   <v>       0.00446429 </v>
   <v>       0.00446429 </v>
   <v>       0.00446429 </v>
   <v>       0.00446429 </v>
   <v>       0.00446429 </v>
   <v>       0.00446429 </v>
   <v>       0.00446429 </v>
   <v>       0.00446429 </v>
   <v>       0.00446429 </v>
   <v>       0.00446429 </v>
   <v>       0.00446429 </v>
   <v>       0.00446429 </v>
   <v>       0.00446429 </v>
   <v>       0.00446429 </v>
   <v>       0.00446429 </v>
   <v>       0.00446429 </v>
   <v>       0.00446429 </v>
   <v>       0.00446429 </v>
   <v>       0.00446429 </v>
   <v>       0.00446429 </v>
  </varray>
 </kpoints>
 <parameters>
  <separator name="general" >
   <i type="string" name="SYSTEM">SnSe</i>
   <i type="logical" name="LCOMPAT"> F  </i>
  </separator>
  <separator name="electronic" >
   <i type="string" name="PREC">accura</i>
   <i name="ENMAX">    600.00000000</i>
   <i name="ENAUG">    446.84200000</i>
   <i name="EDIFF">      0.00000010</i>
   <i type="int" name="IALGO">    58</i>
   <i type="int" name="IWAVPR">    10</i>
   <i type="int" name="NBANDS">    96</i>
   <i name="NELECT">     80.00000000</i>
   <i type="int" name="TURBO">     0</i>
   <i type="int" name="IRESTART">     0</i>
   <i type="int" name="NREBOOT">     0</i>
   <i type="int" name="NMIN">     0</i>
   <i name="EREF">      0.00000000</i>
   <separator name="electronic smearing" >
    <i type="int" name="ISMEAR">     0</i>
    <i name="SIGMA">      0.01000000</i>
    <i name="KSPACING">      0.50000000</i>
    <i type="logical" name="KGAMMA"> T  </i>
   </separator>
   <separator name="electronic projectors" >
    <i type="logical" name="LREAL"> F  </i>
    <v name="ROPT">      0.00000000      0.00000000</v>
    <i type="int" name="LMAXPAW">  -100</i>
    <i type="int" name="LMAXMIX">     4</i>
    <i type="logical" name="NLSPLINE"> F  </i>
   </separator>
   <separator name="electronic startup" >
    <i type="int" name="ISTART">     0</i>
    <i type="int" name="ICHARG">    11</i>
    <i type="int" name="INIWAV">     1</i>
   </separator>
   <separator name="electronic spin" >
    <i type="int" name="ISPIN">     1</i>
    <i type="logical" name="LNONCOLLINEAR"> F  </i>
    <v name="MAGMOM">      1.00000000      1.00000000      1.00000000      1.00000000      1.00000000      1.00000000      1.00000000      1.00000000</v>
    <i name="NUPDOWN">     -1.00000000</i>
    <i type="logical" name="LSORBIT"> F  </i>
    <v name="SAXIS">      0.00000000      0.00000000      1.00000000</v>
    <i type="logical" name="LSPIRAL"> F  </i>
    <v name="QSPIRAL">      0.00000000      0.00000000      0.00000000</v>
    <i type="logical" name="LZEROZ"> F  </i>
   </separator>
   <separator name="electronic exchange-correlation" >
    <i type="logical" name="LASPH"> F  </i>
    <i type="logical" name="LMETAGGA"> F  </i>
   </separator>
   <separator name="electronic convergence" >
    <i type="int" name="NELM">    60</i>
    <i type="int" name="NELMDL">     0</i>
    <i type="int" name="NELMIN">     2</i>
    <i name="ENINI">    600.00000000</i>
    <separator name="electronic convergence detail" >
     <i type="logical" name="LDIAG"> T  </i>
     <i type="logical" name="LSUBROT"> F  </i>
     <i name="WEIMIN">      0.00000000</i>
     <i name="EBREAK">      0.00000000</i>
     <i name="DEPER">      0.30000000</i>
     <i type="int" name="NRMM">     4</i>
     <i name="TIME">      0.40000000</i>
    </separator>
   </separator>
   <separator name="electronic mixer" >
    <i name="AMIX">      0.40000000</i>
    <i name="BMIX">      1.00000000</i>
    <i name="AMIN">      0.10000000</i>
    <i name="AMIX_MAG">      1.60000000</i>
    <i name="BMIX_MAG">      1.00000000</i>
    <separator name="electronic mixer details" >
     <i type="int" name="IMIX">     4</i>
     <i type="logical" name="MIXFIRST"> F  </i>
     <i type="int" name="MAXMIX">   -45</i>
     <i name="WC">    100.00000000</i>
     <i type="int" name="INIMIX">     1</i>
     <i type="int" name="MIXPRE">     1</i>
     <i type="int" name="MREMOVE">     5</i>
    </separator>
   </separator>
   <separator name="electronic dipolcorrection" >
    <i type="logical" name="LDIPOL"> F  </i>
    <i type="logical" name="LMONO"> F  </i>
    <i type="int" name="IDIPOL">     0</i>
    <i name="EPSILON">      1.00000000</i>
    <v name="DIPOL">   -100.00000000   -100.00000000   -100.00000000</v>
    <i name="EFIELD">      0.00000000</i>
   </separator>
  </separator>
  <separator name="grids" >
   <i type="int" name="NGX">    36</i>
   <i type="int" name="NGY">    36</i>
   <i type="int" name="NGZ">    96</i>
   <i type="int" name="NGXF">    72</i>
   <i type="int" name="NGYF">    72</i>
   <i type="int" name="NGZF">   192</i>
   <i type="logical" name="ADDGRID"> T  </i>
  </separator>
  <separator name="ionic" >
   <i type="int" name="NSW">     0</i>
   <i type="int" name="IBRION">    -1</i>
   <i type="int" name="MDALGO">     0</i>
   <i type="int" name="ISIF">     2</i>
   <i name="PSTRESS">      0.00000000</i>
   <i name="EDIFFG">     -0.00100000</i>
   <i type="int" name="NFREE">     0</i>
   <i name="POTIM">      0.50000000</i>
   <i name="SMASS">     -3.00000000</i>
   <i name="SCALEE">      1.00000000</i>
  </separator>
  <separator name="ionic md" >
   <i name="TEBEG">      0.00010000</i>
   <i name="TEEND">      0.00010000</i>
   <i type="int" name="NBLOCK">     1</i>
   <i type="int" name="KBLOCK">     1</i>
   <i type="int" name="NPACO">   256</i>
   <i name="APACO">     16.00000000</i>
  </separator>
  <separator name="symmetry" >
   <i type="int" name="ISYM">     2</i>
   <i name="SYMPREC">      0.00001000</i>
  </separator>
  <separator name="dos" >
   <i type="int" name="LORBIT">     0</i>
   <v name="RWIGS">     -1.00000000     -1.00000000</v>
   <i type="int" name="NEDOS">   301</i>
   <i name="EMIN">     10.00000000</i>
   <i name="EMAX">    -10.00000000</i>
   <i name="EFERMI">      0.00000000</i>
  </separator>
  <separator name="writing" >
   <i type="int" name="NWRITE">     2</i>
   <i type="logical" name="LWAVE"> F  </i>
   <i type="logical" name="LDOWNSAMPLE"> F  </i>
   <i type="logical" name="LCHARG"> F  </i>
   <i type="logical" name="LPARD"> F  </i>
   <i type="logical" name="LVTOT"> F  </i>
   <i type="logical" name="LVHAR"> F  </i>
   <i type="logical" name="LELF"> F  </i>
   <i type="logical" name="LOPTICS"> F  </i>
   <v name="STM">      0.00000000      0.00000000      0.00000000      0.00000000      0.00000000      0.00000000      0.00000000</v>
  </separator>
  <separator name="performance" >
   <i type="int" name="NPAR">     4</i>
   <i type="int" name="NSIM">     4</i>
   <i type="int" name="NBLK">    -1</i>
   <i type="logical" name="LPLANE"> T  </i>
   <i type="logical" name="LSCALAPACK"> T  </i>
   <i type="logical" name="LSCAAWARE"> F  </i>
   <i type="logical" name="LSCALU"> F  </i>
   <i type="logical" name="LASYNC"> F  </i>
   <i type="logical" name="LORBITALREAL"> F  </i>
  </separator>
  <separator name="miscellaneous" >
   <i type="int" name="IDIOT">     3</i>
   <i type="int" name="ISPECIAL">     0</i>
   <i type="logical" name="LMUSIC"> F  </i>
   <v name="POMASS">    118.71000000     78.96000000</v>
   <v name="DARWINR">      0.00000000      0.00000000</v>
   <v name="DARWINV">      1.00000000      1.00000000</v>
   <i type="logical" name="LCORR"> T  </i>
  </separator>
  <i type="logical" name="GGA_COMPAT"> T  </i>
  <i type="logical" name="LBERRY"> F  </i>
  <i type="int" name="ICORELEVEL">     0</i>
  <i type="logical" name="LDAU"> F  </i>
  <i type="int" name="I_CONSTRAINED_M">     0</i>
  <separator name="electronic exchange-correlation" >
   <i type="string" name="GGA">--</i>
   <i type="int" name="VOSKOWN">     0</i>
   <i type="logical" name="LHFCALC"> F  </i>
   <i type="string" name="PRECFOCK"></i>
   <i type="logical" name="LSYMGRAD"> F  </i>
   <i type="logical" name="LHFONE"> F  </i>
   <i type="logical" name="LRHFCALC"> F  </i>
   <i type="logical" name="LTHOMAS"> F  </i>
   <i type="logical" name="LMODELHF"> F  </i>
   <i name="ENCUT4O">     -1.00000000</i>
   <i type="int" name="EXXOEP">     0</i>
   <i type="int" name="FOURORBIT">     0</i>
   <i name="AEXX">      0.00000000</i>
   <i name="HFALPHA">      0.00000000</i>
   <i name="MCALPHA">      0.00000000</i>
   <i name="ALDAX">      1.00000000</i>
   <i name="AGGAX">      1.00000000</i>
   <i name="ALDAC">      1.00000000</i>
   <i name="AGGAC">      1.00000000</i>
   <i type="int" name="NKREDX">     1</i>
   <i type="int" name="NKREDY">     1</i>
   <i type="int" name="NKREDZ">     1</i>
   <i type="logical" name="SHIFTRED"> F  </i>
   <i type="logical" name="ODDONLY"> F  </i>
   <i type="logical" name="EVENONLY"> F  </i>
   <i type="int" name="LMAXFOCK">     0</i>
   <i type="int" name="NMAXFOCKAE">     0</i>
   <i type="logical" name="LFOCKAEDFT"> F  </i>
   <i name="HFSCREEN">      0.00000000</i>
   <i name="HFSCREENC">      0.00000000</i>
   <i type="int" name="NBANDSGWLOW">     0</i>
  </separator>
  <separator name="vdW DFT" >
   <i type="logical" name="LUSE_VDW"> F  </i>
   <i name="Zab_VDW">     -0.84910000</i>
   <i name="PARAM1">      0.12340000</i>
   <i name="PARAM2">      1.00000000</i>
   <i name="PARAM3">      0.00000000</i>
  </separator>
  <separator name="model GW" >
   <i type="int" name="MODEL_GW">     0</i>
   <i name="MODEL_EPS0">     16.46783940</i>
   <i name="MODEL_ALPHA">      1.00000000</i>
  </separator>
  <separator name="linear response parameters" >
   <i type="logical" name="LEPSILON"> F  </i>
   <i type="logical" name="LRPA"> F  </i>
   <i type="logical" name="LNABLA"> F  </i>
   <i type="logical" name="LVEL"> F  </i>
   <i type="int" name="KINTER">     0</i>
   <i name="CSHIFT">      0.10000000</i>
   <i name="OMEGAMAX">     -1.00000000</i>
   <i name="DEG_THRESHOLD">      0.00200000</i>
   <i name="RTIME">     -0.10000000</i>
   <i name="WPLASMAI">      0.00000000</i>
   <v name="DFIELD">      0.00000000      0.00000000      0.00000000</v>
   <v name="WPLASMA">      0.00000000      0.00000000      0.00000000      0.00000000      0.00000000      0.00000000      0.00000000      0.00000000      0.00000000</v>
  </separator>
  <separator name="orbital magnetization" >
   <i type="logical" name="NUCIND"> F  </i>
   <v name="MAGPOS">      0.00000000      0.00000000      0.00000000</v>
   <i type="logical" name="LNICSALL"> T  </i>
   <i type="logical" name="ORBITALMAG"> F  </i>
   <i type="logical" name="LMAGBLOCH"> F  </i>
   <i type="logical" name="LCHIMAG"> F  </i>
   <i type="logical" name="LGAUGE"> T  </i>
   <i type="int" name="MAGATOM">     0</i>
   <v name="MAGDIPOL">      0.00000000      0.00000000      0.00000000</v>
   <v name="AVECCONST">      0.00000000      0.00000000      0.00000000</v>
  </separator>
  <separator name="response functions" >
   <i type="logical" name="LADDER"> F  </i>
   <i type="logical" name="LRPAFORCE"> F  </i>
   <i type="logical" name="LFXC"> F  </i>
   <i type="logical" name="LHARTREE"> T  </i>
   <i type="int" name="IBSE">     0</i>
   <v type="int" name="KPOINT">    -1     0     0     0</v>
   <i type="logical" name="LTCTE"> F  </i>
   <i type="logical" name="LTETE"> F  </i>
   <i type="logical" name="LTRIPLET"> F  </i>
   <i type="logical" name="LFXCEPS"> F  </i>
   <i type="logical" name="LFXHEG"> F  </i>
   <i type="int" name="NATURALO">     2</i>
   <i type="logical" name="L2ORDER"> F  </i>
   <i type="logical" name="LMP2LT"> F  </i>
   <i type="logical" name="LUSEW"> F  </i>
   <i name="ENCUTGW">     -2.00000000</i>
   <i name="ENCUTGWSOFT">     -2.00000000</i>
   <i name="ENCUTLF">     -1.00000000</i>
   <i type="int" name="LMAXMP2">    -1</i>
   <i name="SCISSOR">      0.00000000</i>
   <i type="int" name="NOMEGA">     0</i>
   <i type="int" name="NOMEGAR">     0</i>
   <i type="int" name="NBANDSGW">    -1</i>
   <i type="int" name="NBANDSO">    -1</i>
   <i type="int" name="NBANDSV">    -1</i>
   <i type="int" name="NELM">     1</i>
   <i type="int" name="NELMHF">     1</i>
   <i type="int" name="DIM">     3</i>
   <i type="int" name="ANTIRES">     0</i>
   <i name="OMEGAMAX">    -30.00000000</i>
   <i name="OMEGAMIN">    -30.00000000</i>
   <i name="OMEGATL">   -200.00000000</i>
   <i type="int" name="OMEGAGRID">   140</i>
   <i name="CSHIFT">     -0.10000000</i>
   <i type="logical" name="SELFENERGY"> F  </i>
   <i type="logical" name="LSPECTRAL"> F  </i>
   <i type="logical" name="LSPECTRALGW"> F  </i>
   <i type="logical" name="LSINGLES"> F  </i>
   <i type="logical" name="LFERMIGW"> F  </i>
   <i type="logical" name="ODDONLYGW"> F  </i>
   <i type="logical" name="EVENONLYGW"> F  </i>
   <i type="int" name="NKREDLFX">     1</i>
   <i type="int" name="NKREDLFY">     1</i>
   <i type="int" name="NKREDLFZ">     1</i>
   <i type="int" name="MAXMEM">  2800</i>
   <i type="int" name="TELESCOPE">     0</i>
   <i type="int" name="TAUPAR">     1</i>
   <i type="int" name="OMEGAPAR">    -1</i>
   <i name="LAMBDA">      1.00000000</i>
  </separator>
  <separator name="External order field" >
   <i name="OFIELD_KAPPA">      0.00000000</i>
   <v name="OFIELD_K">      0.00000000      0.00000000      0.00000000</v>
   <i name="OFIELD_Q6_NEAR">      0.00000000</i>
   <i name="OFIELD_Q6_FAR">      0.00000000</i>
   <i name="OFIELD_A">      0.00000000</i>
  </separator>
 </parameters>
 <atominfo>
  <atoms>       8 </atoms>
  <types>       2 </types>
  <array name="atoms" >
   <dimension dim="1">ion</dimension>
   <field type="string">element</field>
   <field type="int">atomtype</field>
   <set>
    <rc><c>Sn</c><c>   1</c></rc>
    <rc><c>Sn</c><c>   1</c></rc>
    <rc><c>Sn</c><c>   1</c></rc>
    <rc><c>Sn</c><c>   1</c></rc>
    <rc><c>Se</c><c>   2</c></rc>
    <rc><c>Se</c><c>   2</c></rc>
    <rc><c>Se</c><c>   2</c></rc>
    <rc><c>Se</c><c>   2</c></rc>
   </set>
  </array>
  <array name="atomtypes" >
   <dimension dim="1">type</dimension>
   <field type="int">atomspertype</field>
   <field type="string">element</field>
   <field>mass</field>
   <field>valence</field>
   <field type="string">pseudopotential</field>
   <set>
    <rc><c>   4</c><c>Sn</c><c>    118.71000000</c><c>     14.00000000</c><c>  PAW_PBE Sn_d 06Sep2000                </c></rc>
    <rc><c>   4</c><c>Se</c><c>     78.96000000</c><c>      6.00000000</c><c>  PAW_PBE Se 06Sep2000                  </c></rc>
   </set>
  </array>
 </atominfo>
 <structure name="initialpos" >
  <crystal>
   <varray name="basis" >
    <v>       4.17036974       0.00000000       0.00000000 </v>
    <v>       0.00000000       4.54642993       0.00000000 </v>
    <v>       0.00000000       0.00000000      11.58057962 </v>
   </varray>
   <i name="volume">    219.57119203 </i>
   <varray name="rec_basis" >
    <v>       0.23978689       0.00000000       0.00000000 </v>
    <v>       0.00000000       0.21995280       0.00000000 </v>
    <v>       0.00000000       0.00000000       0.08635146 </v>
   </varray>
  </crystal>
  <varray name="positions" >
   <v>       0.25000000       0.11267971       0.11682412 </v>
   <v>       0.75000000       0.88732029       0.88317588 </v>
   <v>       0.75000000       0.61267971       0.38317588 </v>
   <v>       0.25000000       0.38732029       0.61682412 </v>
   <v>       0.75000000       0.51878540       0.14519304 </v>
   <v>       0.25000000       0.48121460       0.85480696 </v>
   <v>       0.25000000       0.01878540       0.35480696 </v>
   <v>       0.75000000       0.98121460       0.64519304 </v>
  </varray>
 </structure>
 <calculation>
  <scstep>
   <time name="total">  139.09  142.19</time>
   <energy>
    <i name="alphaZ">    201.27973507 </i>
    <i name="ewald">  -5913.14810762 </i>
    <i name="hartreedc">  -2401.96295668 </i>
    <i name="XCdc">    225.04139038 </i>
    <i name="pawpsdc">   8371.16203754 </i>
    <i name="pawaedc">  -8465.05467656 </i>
    <i name="eentropy">     -0.00004293 </i>
    <i name="bandstr">    338.47258903 </i>
    <i name="atom">   8600.94477988 </i>
    <i name="e_fr_energy">    956.73474810 </i>
    <i name="e_wo_entrp">    956.73479103 </i>
    <i name="e_0_energy">    956.73476957 </i>
   </energy>
  </scstep>
  <scstep>
   <time name="total">  107.74  110.50</time>
   <energy>
    <i name="e_fr_energy">    166.75771521 </i>
    <i name="e_wo_entrp">    166.75783487 </i>
    <i name="e_0_energy">    166.75777504 </i>
   </energy>
  </scstep>
  <scstep>
   <time name="total">  104.98  108.42</time>
   <energy>
    <i name="e_fr_energy">    -18.96530541 </i>
    <i name="e_wo_entrp">    -18.96530541 </i>
    <i name="e_0_energy">    -18.96530541 </i>
   </energy>
  </scstep>
  <scstep>
   <time name="total">  138.36  146.04</time>
   <energy>
    <i name="e_fr_energy">    -32.23632984 </i>
    <i name="e_wo_entrp">    -32.23632984 </i>
    <i name="e_0_energy">    -32.23632984 </i>
   </energy>
  </scstep>
  <scstep>
   <time name="total">  132.35  137.47</time>
   <energy>
    <i name="e_fr_energy">    -32.53690584 </i>
    <i name="e_wo_entrp">    -32.53690584 </i>
    <i name="e_0_energy">    -32.53690584 </i>
   </energy>
  </scstep>
  <scstep>
   <time name="total">   81.60   83.28</time>
   <energy>
    <i name="e_fr_energy">    -32.53690584 </i>
    <i name="e_wo_entrp">    -32.53690584 </i>
    <i name="e_0_energy">    -32.53690584 </i>
   </energy>
  </scstep>
  <scstep>
   <time name="total">   83.66   85.88</time>
   <energy>
    <i name="e_fr_energy">    -32.54439813 </i>
    <i name="e_wo_entrp">    -32.54439813 </i>
    <i name="e_0_energy">    -32.54439813 </i>
   </energy>
  </scstep>
  <scstep>
   <time name="total">   82.92   92.96</time>
   <energy>
    <i name="e_fr_energy">    -32.54665683 </i>
    <i name="e_wo_entrp">    -32.54665683 </i>
    <i name="e_0_energy">    -32.54665683 </i>
   </energy>
  </scstep>
  <scstep>
   <time name="total">   73.74   75.96</time>
   <energy>
    <i name="e_fr_energy">    -32.54741593 </i>
    <i name="e_wo_entrp">    -32.54741593 </i>
    <i name="e_0_energy">    -32.54741593 </i>
   </energy>
  </scstep>
  <scstep>
   <time name="total">   67.94   69.64</time>
   <energy>
    <i name="e_fr_energy">    -32.54753291 </i>
    <i name="e_wo_entrp">    -32.54753291 </i>
    <i name="e_0_energy">    -32.54753291 </i>
   </energy>
  </scstep>
  <scstep>
   <time name="total">   98.04  101.79</time>
   <energy>
    <i name="e_fr_energy">    -32.54756877 </i>
    <i name="e_wo_entrp">    -32.54756877 </i>
    <i name="e_0_energy">    -32.54756877 </i>
   </energy>
  </scstep>
  <scstep>
   <time name="total">   86.41   91.03</time>
   <energy>
    <i name="e_fr_energy">    -32.54757678 </i>
    <i name="e_wo_entrp">    -32.54757678 </i>
    <i name="e_0_energy">    -32.54757678 </i>
   </energy>
  </scstep>
  <scstep>
   <time name="total">   77.34   78.68</time>
   <energy>
    <i name="e_fr_energy">    -32.54757820 </i>
    <i name="e_wo_entrp">    -32.54757820 </i>
    <i name="e_0_energy">    -32.54757820 </i>
   </energy>
  </scstep>
  <scstep>
   <time name="total">   79.76   82.14</time>
   <energy>
    <i name="e_fr_energy">    -32.54757851 </i>
    <i name="e_wo_entrp">    -32.54757851 </i>
    <i name="e_0_energy">    -32.54757851 </i>
   </energy>
  </scstep>
  <scstep>
   <time name="total">   85.71   90.04</time>
   <energy>
    <i name="e_fr_energy">    -32.54757861 </i>
    <i name="e_wo_entrp">    -32.54757861 </i>
    <i name="e_0_energy">    -32.54757861 </i>
   </energy>
  </scstep>
  <scstep>
   <time name="total">   88.77   91.56</time>
   <energy>
    <i name="alphaZ">    201.27973507 </i>
    <i name="ewald">  -5913.14810762 </i>
    <i name="hartreedc">  -2401.96295668 </i>
    <i name="XCdc">    225.04139038 </i>
    <i name="pawpsdc">   8371.16203754 </i>
    <i name="pawaedc">  -8465.05467656 </i>
    <i name="eentropy">     -0.00000000 </i>
    <i name="bandstr">   -650.80978065 </i>
    <i name="atom">   8600.94477988 </i>
    <i name="e_fr_energy">    -32.54757864 </i>
    <i name="e_wo_entrp">    -32.54757864 </i>
    <i name="e_0_energy">    -32.54757864 </i>
   </energy>
  </scstep>
  <structure>
   <crystal>
    <varray name="basis" >
     <v>       4.17036974       0.00000000       0.00000000 </v>
     <v>       0.00000000       4.54642993       0.00000000 </v>
     <v>       0.00000000       0.00000000      11.58057962 </v>
    </varray>
    <i name="volume">    219.57119203 </i>
    <varray name="rec_basis" >
     <v>       0.23978689       0.00000000       0.00000000 </v>
     <v>       0.00000000       0.21995280       0.00000000 </v>
     <v>       0.00000000       0.00000000       0.08635146 </v>
    </varray>
   </crystal>
   <varray name="positions" >
    <v>       0.25000000       0.11267971       0.11682412 </v>
    <v>       0.75000000       0.88732029       0.88317588 </v>
    <v>       0.75000000       0.61267971       0.38317588 </v>
    <v>       0.25000000       0.38732029       0.61682412 </v>
    <v>       0.75000000       0.51878540       0.14519304 </v>
    <v>       0.25000000       0.48121460       0.85480696 </v>
    <v>       0.25000000       0.01878540       0.35480696 </v>
    <v>       0.75000000       0.98121460       0.64519304 </v>
   </varray>
  </structure>
  <varray name="forces" >
   <v>      -0.00000000       0.11459924       0.07236843 </v>
   <v>      -0.00000000      -0.11459924      -0.07236843 </v>
   <v>       0.00000000       0.11459924      -0.07236843 </v>
   <v>       0.00000000      -0.11459924       0.07236843 </v>
   <v>       0.00000000      -0.13997997       0.07080824 </v>
   <v>      -0.00000000       0.13997997      -0.07080824 </v>
   <v>       0.00000000      -0.13997997      -0.07080824 </v>
   <v>       0.00000000       0.13997997       0.07080824 </v>
  </varray>
  <varray name="stress" >
   <v>       9.66554481       0.00000000       0.00000000 </v>
   <v>       0.00000000      -0.81301684       0.00000000 </v>
   <v>       0.00000000       0.00000000     -17.00204118 </v>
  </varray>
  <energy>
   <i name="e_fr_energy">    -34.30918753 </i>
   <i name="e_wo_entrp">    -34.30918753 </i>
   <i name="e_0_energy">     -0.00000000 </i>
  </energy>
  <time name="totalsc"> 1623.26 1685.38</time>
  <eigenvalues>
   <array>
    <dimension dim="1">band</dimension>
    <dimension dim="2">kpoint</dimension>
    <dimension dim="3">spin</dimension>
    <field>eigene</field>
    <field>occ</field>
    <set>
     <set comment="spin 1">
      <set comment="kpoint 1">
       <r>  -16.1952    1.0000 </r>
       <r>  -16.1834    1.0000 </r>
       <r>  -16.1816    1.0000 </r>
       <r>  -16.1774    1.0000 </r>
       <r>  -16.1769    1.0000 </r>
       <r>  -16.1746    1.0000 </r>
       <r>  -16.1716    1.0000 </r>
       <r>  -16.1690    1.0000 </r>
       <r>  -16.1617    1.0000 </r>
       <r>  -16.1606    1.0000 </r>
       <r>  -16.1580    1.0000 </r>
       <r>  -16.1556    1.0000 </r>
       <r>  -16.1484    1.0000 </r>
       <r>  -16.1455    1.0000 </r>
       <r>  -16.1266    1.0000 </r>
       <r>  -16.1228    1.0000 </r>
       <r>  -16.1192    1.0000 </r>
       <r>  -16.1164    1.0000 </r>
       <r>  -16.1104    1.0000 </r>
       <r>  -16.1037    1.0000 </r>
       <r>   -8.4721    1.0000 </r>
       <r>   -8.1447    1.0000 </r>
       <r>   -7.5105    1.0000 </r>
       <r>   -7.0605    1.0000 </r>
       <r>   -2.0125    1.0000 </r>
       <r>   -0.9686    1.0000 </r>
       <r>   -0.4503    1.0000 </r>
       <r>    0.1479    1.0000 </r>
       <r>    0.4823    1.0000 </r>
       <r>    1.8962    1.0000 </r>
       <r>    1.9749    1.0000 </r>
       <r>    1.9784    1.0000 </r>
       <r>    2.2617    1.0000 </r>
       <r>    2.4587    1.0000 </r>
       <r>    3.0036    1.0000 </r>
       <r>    3.3348    1.0000 </r>
       <r>    3.6538    1.0000 </r>
       <r>    4.0772    1.0000 </r>
       <r>    4.4229    1.0000 </r>
       <r>    4.6964    1.0000 </r>
       <r>    5.9017    0.0000 </r>
       <r>    7.8303    0.0000 </r>
       <r>    8.0883    0.0000 </r>
       <r>    8.0914    0.0000 </r>
       <r>    8.2724    0.0000 </r>
       <r>    8.5369    0.0000 </r>
       <r>    9.0370    0.0000 </r>
       <r>    9.6060    0.0000 </r>
       <r>    9.6841    0.0000 </r>
       <r>    9.8736    0.0000 </r>
       <r>   10.4794    0.0000 </r>
       <r>   10.9793    0.0000 </r>
       <r>   11.1473    0.0000 </r>
       <r>   11.2216    0.0000 </r>
       <r>   11.5204    0.0000 </r>
       <r>   12.1107    0.0000 </r>
       <r>   12.1713    0.0000 </r>
       <r>   13.0747    0.0000 </r>
       <r>   13.5203    0.0000 </r>
       <r>   13.6771    0.0000 </r>
       <r>   13.7021    0.0000 </r>
       <r>   13.7438    0.0000 </r>
       <r>   14.0070    0.0000 </r>
       <r>   14.2155    0.0000 </r>
       <r>   14.6676    0.0000 </r>
       <r>   14.8334    0.0000 </r>
       <r>   15.4192    0.0000 </r>
       <r>   15.5320    0.0000 </r>
       <r>   15.7215    0.0000 </r>
       <r>   15.7917    0.0000 </r>
       <r>   15.8658    0.0000 </r>
       <r>   16.0951    0.0000 </r>
       <r>   17.3265    0.0000 </r>
       <r>   17.4912    0.0000 </r>
       <r>   17.6428    0.0000 </r>
       <r>   17.8822    0.0000 </r>
       <r>   18.8647    0.0000 </r>
       <r>   19.3484    0.0000 </r>
       <r>   20.3697    0.0000 </r>
       <r>   20.6603    0.0000 </r>
       <r>   21.0459    0.0000 </r>
       <r>   21.1691    0.0000 </r>
       <r>   21.1986    0.0000 </r>
       <r>   21.4963    0.0000 </r>
       <r>   21.5619    0.0000 </r>
       <r>   21.7657    0.0000 </r>
       <r>   22.2318    0.0000 </r>
       <r>   22.3024    0.0000 </r>
       <r>   22.8588    0.0000 </r>
       <r>   22.9683    0.0000 </r>
       <r>   23.2475    0.0000 </r>
       <r>   23.4803    0.0000 </r>
       <r>   23.5024    0.0000 </r>
       <r>   23.5244    0.0000 </r>
       <r>   23.6539    0.0000 </r>
       <r>   24.7904    0.0000 </r>
      </set>
      <set comment="kpoint 2">
       <r>  -16.1951    1.0000 </r>
       <r>  -16.1833    1.0000 </r>
       <r>  -16.1815    1.0000 </r>
       <r>  -16.1775    1.0000 </r>
       <r>  -16.1769    1.0000 </r>
       <r>  -16.1746    1.0000 </r>
       <r>  -16.1717    1.0000 </r>
       <r>  -16.1690    1.0000 </r>
       <r>  -16.1618    1.0000 </r>
       <r>  -16.1606    1.0000 </r>
       <r>  -16.1579    1.0000 </r>
       <r>  -16.1557    1.0000 </r>
       <r>  -16.1483    1.0000 </r>
       <r>  -16.1455    1.0000 </r>
       <r>  -16.1265    1.0000 </r>
       <r>  -16.1228    1.0000 </r>
       <r>  -16.1192    1.0000 </r>
       <r>  -16.1165    1.0000 </r>
       <r>  -16.1104    1.0000 </r>
       <r>  -16.1037    1.0000 </r>
       <r>   -8.4696    1.0000 </r>
       <r>   -8.1425    1.0000 </r>
       <r>   -7.5092    1.0000 </r>
       <r>   -7.0603    1.0000 </r>
       <r>   -2.0156    1.0000 </r>
       <r>   -0.9753    1.0000 </r>
       <r>   -0.4524    1.0000 </r>
       <r>    0.1340    1.0000 </r>
       <r>    0.4821    1.0000 </r>
       <r>    1.8994    1.0000 </r>
       <r>    1.9366    1.0000 </r>
       <r>    2.0207    1.0000 </r>
       <r>    2.2643    1.0000 </r>
       <r>    2.4555    1.0000 </r>
       <r>    3.0095    1.0000 </r>
       <r>    3.3363    1.0000 </r>
       <r>    3.6508    1.0000 </r>
       <r>    4.0843    1.0000 </r>
       <r>    4.4236    1.0000 </r>
       <r>    4.6948    1.0000 </r>
       <r>    5.9058    0.0000 </r>
       <r>    7.8365    0.0000 </r>
       <r>    8.0968    0.0000 </r>
       <r>    8.1025    0.0000 </r>
       <r>    8.2367    0.0000 </r>
       <r>    8.5337    0.0000 </r>
       <r>    9.0370    0.0000 </r>
       <r>    9.5831    0.0000 </r>
       <r>    9.6555    0.0000 </r>
       <r>    9.8849    0.0000 </r>
       <r>   10.4834    0.0000 </r>
       <r>   10.9602    0.0000 </r>
       <r>   11.1498    0.0000 </r>
       <r>   11.2296    0.0000 </r>
       <r>   11.4965    0.0000 </r>
       <r>   12.0841    0.0000 </r>
       <r>   12.1520    0.0000 </r>
       <r>   13.0876    0.0000 </r>
       <r>   13.5126    0.0000 </r>
       <r>   13.6095    0.0000 </r>
       <r>   13.7872    0.0000 </r>
       <r>   13.7901    0.0000 </r>
       <r>   14.0339    0.0000 </r>
       <r>   14.2470    0.0000 </r>
       <r>   14.6839    0.0000 </r>
       <r>   14.8442    0.0000 </r>
       <r>   15.3542    0.0000 </r>
       <r>   15.5473    0.0000 </r>
       <r>   15.6797    0.0000 </r>
       <r>   15.8749    0.0000 </r>
       <r>   15.9008    0.0000 </r>
       <r>   16.1608    0.0000 </r>
       <r>   17.2064    0.0000 </r>
       <r>   17.5229    0.0000 </r>
       <r>   17.5709    0.0000 </r>
       <r>   18.0176    0.0000 </r>
       <r>   18.9311    0.0000 </r>
       <r>   19.3104    0.0000 </r>
       <r>   20.4066    0.0000 </r>
       <r>   20.6264    0.0000 </r>
       <r>   20.9887    0.0000 </r>
       <r>   21.1425    0.0000 </r>
       <r>   21.1815    0.0000 </r>
       <r>   21.5167    0.0000 </r>
       <r>   21.5214    0.0000 </r>
       <r>   21.7831    0.0000 </r>
       <r>   22.2392    0.0000 </r>
       <r>   22.3212    0.0000 </r>
       <r>   22.9009    0.0000 </r>
       <r>   22.9948    0.0000 </r>
       <r>   23.2549    0.0000 </r>
       <r>   23.3068    0.0000 </r>
       <r>   23.6075    0.0000 </r>
       <r>   23.6595    0.0000 </r>
       <r>   23.7325    0.0000 </r>
       <r>   24.6611    0.0000 </r>
      </set>
      <set comment="kpoint 3">
       <r>  -16.1948    1.0000 </r>
       <r>  -16.1832    1.0000 </r>
       <r>  -16.1813    1.0000 </r>
       <r>  -16.1776    1.0000 </r>
       <r>  -16.1767    1.0000 </r>
       <r>  -16.1748    1.0000 </r>
       <r>  -16.1719    1.0000 </r>
       <r>  -16.1692    1.0000 </r>
       <r>  -16.1620    1.0000 </r>
       <r>  -16.1605    1.0000 </r>
       <r>  -16.1576    1.0000 </r>
       <r>  -16.1559    1.0000 </r>
       <r>  -16.1481    1.0000 </r>
       <r>  -16.1456    1.0000 </r>
       <r>  -16.1264    1.0000 </r>
       <r>  -16.1229    1.0000 </r>
       <r>  -16.1191    1.0000 </r>
       <r>  -16.1167    1.0000 </r>
       <r>  -16.1104    1.0000 </r>
       <r>  -16.1038    1.0000 </r>
       <r>   -8.4621    1.0000 </r>
       <r>   -8.1360    1.0000 </r>
       <r>   -7.5053    1.0000 </r>
       <r>   -7.0596    1.0000 </r>
       <r>   -2.0248    1.0000 </r>
       <r>   -0.9951    1.0000 </r>
       <r>   -0.4586    1.0000 </r>
       <r>    0.0928    1.0000 </r>
       <r>    0.4817    1.0000 </r>
       <r>    1.9016    1.0000 </r>
       <r>    1.9091    1.0000 </r>
       <r>    2.0676    1.0000 </r>
       <r>    2.2721    1.0000 </r>
       <r>    2.4465    1.0000 </r>
       <r>    3.0266    1.0000 </r>
       <r>    3.3410    1.0000 </r>
       <r>    3.6419    1.0000 </r>
       <r>    4.1057    1.0000 </r>
       <r>    4.4257    1.0000 </r>
       <r>    4.6897    1.0000 </r>
       <r>    5.9176    0.0000 </r>
       <r>    7.8538    0.0000 </r>
       <r>    8.1216    0.0000 </r>
       <r>    8.1347    0.0000 </r>
       <r>    8.1361    0.0000 </r>
       <r>    8.5234    0.0000 </r>
       <r>    9.0361    0.0000 </r>
       <r>    9.5199    0.0000 </r>
       <r>    9.5770    0.0000 </r>
       <r>    9.9135    0.0000 </r>
       <r>   10.4881    0.0000 </r>
       <r>   10.9058    0.0000 </r>
       <r>   11.1532    0.0000 </r>
       <r>   11.2537    0.0000 </r>
       <r>   11.4272    0.0000 </r>
       <r>   12.0184    0.0000 </r>
       <r>   12.0987    0.0000 </r>
       <r>   13.1246    0.0000 </r>
       <r>   13.4943    0.0000 </r>
       <r>   13.5561    0.0000 </r>
       <r>   13.9022    0.0000 </r>
       <r>   13.9032    0.0000 </r>
       <r>   14.1139    0.0000 </r>
       <r>   14.3246    0.0000 </r>
       <r>   14.7323    0.0000 </r>
       <r>   14.8789    0.0000 </r>
       <r>   15.2496    0.0000 </r>
       <r>   15.5964    0.0000 </r>
       <r>   15.6075    0.0000 </r>
       <r>   15.9997    0.0000 </r>
       <r>   16.0438    0.0000 </r>
       <r>   16.2972    0.0000 </r>
       <r>   16.9961    0.0000 </r>
       <r>   17.3937    0.0000 </r>
       <r>   17.6158    0.0000 </r>
       <r>   18.2829    0.0000 </r>
       <r>   19.0322    0.0000 </r>
       <r>   19.2767    0.0000 </r>
       <r>   20.4937    0.0000 </r>
       <r>   20.5242    0.0000 </r>
       <r>   20.8506    0.0000 </r>
       <r>   21.0005    0.0000 </r>
       <r>   21.2105    0.0000 </r>
       <r>   21.4415    0.0000 </r>
       <r>   21.5570    0.0000 </r>
       <r>   21.8375    0.0000 </r>
       <r>   22.1025    0.0000 </r>
       <r>   22.5299    0.0000 </r>
       <r>   22.9448    0.0000 </r>
       <r>   23.0286    0.0000 </r>
       <r>   23.1084    0.0000 </r>
       <r>   23.4497    0.0000 </r>
       <r>   23.6432    0.0000 </r>
       <r>   23.7341    0.0000 </r>
       <r>   23.9969    0.0000 </r>
       <r>   24.7116    0.0000 </r>
      </set>
      <set comment="kpoint 4">
       <r>  -16.1943    1.0000 </r>
       <r>  -16.1830    1.0000 </r>
       <r>  -16.1808    1.0000 </r>
       <r>  -16.1779    1.0000 </r>
       <r>  -16.1764    1.0000 </r>
       <r>  -16.1750    1.0000 </r>
       <r>  -16.1722    1.0000 </r>
       <r>  -16.1694    1.0000 </r>
       <r>  -16.1623    1.0000 </r>
       <r>  -16.1603    1.0000 </r>
       <r>  -16.1572    1.0000 </r>
       <r>  -16.1562    1.0000 </r>
       <r>  -16.1478    1.0000 </r>
       <r>  -16.1456    1.0000 </r>
       <r>  -16.1261    1.0000 </r>
       <r>  -16.1231    1.0000 </r>
       <r>  -16.1189    1.0000 </r>
       <r>  -16.1170    1.0000 </r>
       <r>  -16.1103    1.0000 </r>
       <r>  -16.1039    1.0000 </r>
       <r>   -8.4495    1.0000 </r>
       <r>   -8.1253    1.0000 </r>
       <r>   -7.4990    1.0000 </r>
       <r>   -7.0585    1.0000 </r>
       <r>   -2.0401    1.0000 </r>
       <r>   -1.0273    1.0000 </r>
       <r>   -0.4698    1.0000 </r>
       <r>    0.0264    1.0000 </r>
       <r>    0.4819    1.0000 </r>
       <r>    1.8728    1.0000 </r>
       <r>    1.9250    1.0000 </r>
       <r>    2.1164    1.0000 </r>
       <r>    2.2852    1.0000 </r>
       <r>    2.4326    1.0000 </r>
       <r>    3.0533    1.0000 </r>
       <r>    3.3487    1.0000 </r>
       <r>    3.6284    1.0000 </r>
       <r>    4.1407    1.0000 </r>
       <r>    4.4288    1.0000 </r>
       <r>    4.6805    1.0000 </r>
       <r>    5.9368    0.0000 </r>
       <r>    7.8779    0.0000 </r>
       <r>    7.9850    0.0000 </r>
       <r>    8.1601    0.0000 </r>
       <r>    8.1853    0.0000 </r>
       <r>    8.5035    0.0000 </r>
       <r>    9.0305    0.0000 </r>
       <r>    9.4313    0.0000 </r>
       <r>    9.4645    0.0000 </r>
       <r>    9.9480    0.0000 </r>
       <r>   10.4786    0.0000 </r>
       <r>   10.8240    0.0000 </r>
       <r>   11.1481    0.0000 </r>
       <r>   11.2932    0.0000 </r>
       <r>   11.3190    0.0000 </r>
       <r>   11.9429    0.0000 </r>
       <r>   12.0226    0.0000 </r>
       <r>   13.1831    0.0000 </r>
       <r>   13.4709    0.0000 </r>
       <r>   13.5307    0.0000 </r>
       <r>   14.0229    0.0000 </r>
       <r>   14.0565    0.0000 </r>
       <r>   14.2432    0.0000 </r>
       <r>   14.4031    0.0000 </r>
       <r>   14.8113    0.0000 </r>
       <r>   14.9448    0.0000 </r>
       <r>   15.1965    0.0000 </r>
       <r>   15.5530    0.0000 </r>
       <r>   15.6849    0.0000 </r>
       <r>   16.1506    0.0000 </r>
       <r>   16.2398    0.0000 </r>
       <r>   16.4057    0.0000 </r>
       <r>   16.8445    0.0000 </r>
       <r>   17.1679    0.0000 </r>
       <r>   17.7633    0.0000 </r>
       <r>   18.5821    0.0000 </r>
       <r>   18.9401    0.0000 </r>
       <r>   19.4528    0.0000 </r>
       <r>   20.3613    0.0000 </r>
       <r>   20.5888    0.0000 </r>
       <r>   20.6733    0.0000 </r>
       <r>   20.8034    0.0000 </r>
       <r>   21.2606    0.0000 </r>
       <r>   21.3967    0.0000 </r>
       <r>   21.5305    0.0000 </r>
       <r>   21.9332    0.0000 </r>
       <r>   21.9903    0.0000 </r>
       <r>   22.7868    0.0000 </r>
       <r>   22.8258    0.0000 </r>
       <r>   22.9649    0.0000 </r>
       <r>   23.3043    0.0000 </r>
       <r>   23.6251    0.0000 </r>
       <r>   23.6416    0.0000 </r>
       <r>   23.9538    0.0000 </r>
       <r>   24.1543    0.0000 </r>
       <r>   24.8837    0.0000 </r>
      </set>
      <set comment="kpoint 5">
       <r>  -16.1936    1.0000 </r>
       <r>  -16.1827    1.0000 </r>
       <r>  -16.1802    1.0000 </r>
       <r>  -16.1782    1.0000 </r>
       <r>  -16.1760    1.0000 </r>
       <r>  -16.1753    1.0000 </r>
       <r>  -16.1727    1.0000 </r>
       <r>  -16.1697    1.0000 </r>
       <r>  -16.1626    1.0000 </r>
       <r>  -16.1602    1.0000 </r>
       <r>  -16.1568    1.0000 </r>
       <r>  -16.1567    1.0000 </r>
       <r>  -16.1474    1.0000 </r>
       <r>  -16.1457    1.0000 </r>
       <r>  -16.1258    1.0000 </r>
       <r>  -16.1233    1.0000 </r>
       <r>  -16.1187    1.0000 </r>
       <r>  -16.1174    1.0000 </r>
       <r>  -16.1103    1.0000 </r>
       <r>  -16.1040    1.0000 </r>
       <r>   -8.4320    1.0000 </r>
       <r>   -8.1104    1.0000 </r>
       <r>   -7.4904    1.0000 </r>
       <r>   -7.0573    1.0000 </r>
       <r>   -2.0612    1.0000 </r>
       <r>   -1.0712    1.0000 </r>
       <r>   -0.4870    1.0000 </r>
       <r>   -0.0621    1.0000 </r>
       <r>    0.4838    1.0000 </r>
       <r>    1.8510    1.0000 </r>
       <r>    1.9473    1.0000 </r>
       <r>    2.1663    1.0000 </r>
       <r>    2.3034    1.0000 </r>
       <r>    2.4155    1.0000 </r>
       <r>    3.0876    1.0000 </r>
       <r>    3.3593    1.0000 </r>
       <r>    3.6116    1.0000 </r>
       <r>    4.1887    1.0000 </r>
       <r>    4.4328    1.0000 </r>
       <r>    4.6662    1.0000 </r>
       <r>    5.9626    0.0000 </r>
       <r>    7.7986    0.0000 </r>
       <r>    7.9021    0.0000 </r>
       <r>    8.2067    0.0000 </r>
       <r>    8.2491    0.0000 </r>
       <r>    8.4708    0.0000 </r>
       <r>    9.0105    0.0000 </r>
       <r>    9.3336    0.0000 </r>
       <r>    9.3420    0.0000 </r>
       <r>    9.9789    0.0000 </r>
       <r>   10.4435    0.0000 </r>
       <r>   10.7258    0.0000 </r>
       <r>   11.1259    0.0000 </r>
       <r>   11.1813    0.0000 </r>
       <r>   11.3463    0.0000 </r>
       <r>   11.8843    0.0000 </r>
       <r>   11.9354    0.0000 </r>
       <r>   13.2607    0.0000 </r>
       <r>   13.4409    0.0000 </r>
       <r>   13.5341    0.0000 </r>
       <r>   14.1427    0.0000 </r>
       <r>   14.2214    0.0000 </r>
       <r>   14.4084    0.0000 </r>
       <r>   14.4336    0.0000 </r>
       <r>   14.9186    0.0000 </r>
       <r>   15.0547    0.0000 </r>
       <r>   15.2492    0.0000 </r>
       <r>   15.5235    0.0000 </r>
       <r>   15.8148    0.0000 </r>
       <r>   16.3414    0.0000 </r>
       <r>   16.3568    0.0000 </r>
       <r>   16.4504    0.0000 </r>
       <r>   16.8989    0.0000 </r>
       <r>   16.9271    0.0000 </r>
       <r>   17.9564    0.0000 </r>
       <r>   18.7675    0.0000 </r>
       <r>   18.8914    0.0000 </r>
       <r>   19.7151    0.0000 </r>
       <r>   20.1577    0.0000 </r>
       <r>   20.4777    0.0000 </r>
       <r>   20.5802    0.0000 </r>
       <r>   20.6614    0.0000 </r>
       <r>   21.3320    0.0000 </r>
       <r>   21.3910    0.0000 </r>
       <r>   21.3941    0.0000 </r>
       <r>   21.9713    0.0000 </r>
       <r>   22.0718    0.0000 </r>
       <r>   22.6574    0.0000 </r>
       <r>   22.9820    0.0000 </r>
       <r>   23.0588    0.0000 </r>
       <r>   23.5455    0.0000 </r>
       <r>   23.6295    0.0000 </r>
       <r>   23.8537    0.0000 </r>
       <r>   24.2213    0.0000 </r>
       <r>   24.3000    0.0000 </r>
       <r>   25.1937    0.0000 </r>
      </set>
      <set comment="kpoint 6">
       <r>  -16.1927    1.0000 </r>
       <r>  -16.1825    1.0000 </r>
       <r>  -16.1794    1.0000 </r>
       <r>  -16.1785    1.0000 </r>
       <r>  -16.1756    1.0000 </r>
       <r>  -16.1755    1.0000 </r>
       <r>  -16.1733    1.0000 </r>
       <r>  -16.1701    1.0000 </r>
       <r>  -16.1629    1.0000 </r>
       <r>  -16.1600    1.0000 </r>
       <r>  -16.1572    1.0000 </r>
       <r>  -16.1562    1.0000 </r>
       <r>  -16.1469    1.0000 </r>
       <r>  -16.1458    1.0000 </r>
       <r>  -16.1254    1.0000 </r>
       <r>  -16.1237    1.0000 </r>
       <r>  -16.1184    1.0000 </r>
       <r>  -16.1180    1.0000 </r>
       <r>  -16.1102    1.0000 </r>
       <r>  -16.1042    1.0000 </r>
       <r>   -8.4097    1.0000 </r>
       <r>   -8.0914    1.0000 </r>
       <r>   -7.4796    1.0000 </r>
       <r>   -7.0560    1.0000 </r>
       <r>   -2.0879    1.0000 </r>
       <r>   -1.1252    1.0000 </r>
       <r>   -0.5114    1.0000 </r>
       <r>   -0.1693    1.0000 </r>
       <r>    0.4890    1.0000 </r>
       <r>    1.8371    1.0000 </r>
       <r>    1.9758    1.0000 </r>
       <r>    2.2164    1.0000 </r>
       <r>    2.3268    1.0000 </r>
       <r>    2.3972    1.0000 </r>
       <r>    3.1274    1.0000 </r>
       <r>    3.3728    1.0000 </r>
       <r>    3.5935    1.0000 </r>
       <r>    4.2485    1.0000 </r>
       <r>    4.4373    1.0000 </r>
       <r>    4.6461    1.0000 </r>
       <r>    5.9943    0.0000 </r>
       <r>    7.5893    0.0000 </r>
       <r>    7.9171    0.0000 </r>
       <r>    8.2502    0.0000 </r>
       <r>    8.3183    0.0000 </r>
       <r>    8.4217    0.0000 </r>
       <r>    8.9622    0.0000 </r>
       <r>    9.1968    0.0000 </r>
       <r>    9.2841    0.0000 </r>
       <r>   10.0014    0.0000 </r>
       <r>   10.3814    0.0000 </r>
       <r>   10.6228    0.0000 </r>
       <r>   11.0251    0.0000 </r>
       <r>   11.0834    0.0000 </r>
       <r>   11.4105    0.0000 </r>
       <r>   11.8471    0.0000 </r>
       <r>   11.8581    0.0000 </r>
       <r>   13.3552    0.0000 </r>
       <r>   13.3969    0.0000 </r>
       <r>   13.5637    0.0000 </r>
       <r>   14.2610    0.0000 </r>
       <r>   14.3762    0.0000 </r>
       <r>   14.4154    0.0000 </r>
       <r>   14.5926    0.0000 </r>
       <r>   15.0520    0.0000 </r>
       <r>   15.2202    0.0000 </r>
       <r>   15.4095    0.0000 </r>
       <r>   15.4941    0.0000 </r>
       <r>   15.9842    0.0000 </r>
       <r>   16.2520    0.0000 </r>
       <r>   16.5626    0.0000 </r>
       <r>   16.6730    0.0000 </r>
       <r>   16.6905    0.0000 </r>
       <r>   17.0898    0.0000 </r>
       <r>   18.1836    0.0000 </r>
       <r>   18.5803    0.0000 </r>
       <r>   19.1968    0.0000 </r>
       <r>   19.9349    0.0000 </r>
       <r>   19.9864    0.0000 </r>
       <r>   20.2754    0.0000 </r>
       <r>   20.3533    0.0000 </r>
       <r>   20.7015    0.0000 </r>
       <r>   21.1914    0.0000 </r>
       <r>   21.4166    0.0000 </r>
       <r>   21.4255    0.0000 </r>
       <r>   22.0159    0.0000 </r>
       <r>   22.2414    0.0000 </r>
       <r>   22.5442    0.0000 </r>
       <r>   23.0008    0.0000 </r>
       <r>   23.3073    0.0000 </r>
       <r>   23.6496    0.0000 </r>
       <r>   23.8050    0.0000 </r>
       <r>   24.2107    0.0000 </r>
       <r>   24.3993    0.0000 </r>
       <r>   24.5512    0.0000 </r>
       <r>   25.0064    0.0000 </r>
      </set>
      <set comment="kpoint 7">
       <r>  -16.1917    1.0000 </r>
       <r>  -16.1824    1.0000 </r>
       <r>  -16.1790    1.0000 </r>
       <r>  -16.1785    1.0000 </r>
       <r>  -16.1757    1.0000 </r>
       <r>  -16.1751    1.0000 </r>
       <r>  -16.1740    1.0000 </r>
       <r>  -16.1706    1.0000 </r>
       <r>  -16.1632    1.0000 </r>
       <r>  -16.1598    1.0000 </r>
       <r>  -16.1577    1.0000 </r>
       <r>  -16.1556    1.0000 </r>
       <r>  -16.1463    1.0000 </r>
       <r>  -16.1460    1.0000 </r>
       <r>  -16.1249    1.0000 </r>
       <r>  -16.1241    1.0000 </r>
       <r>  -16.1186    1.0000 </r>
       <r>  -16.1180    1.0000 </r>
       <r>  -16.1101    1.0000 </r>
       <r>  -16.1044    1.0000 </r>
       <r>   -8.3826    1.0000 </r>
       <r>   -8.0685    1.0000 </r>
       <r>   -7.4669    1.0000 </r>
       <r>   -7.0551    1.0000 </r>
       <r>   -2.1195    1.0000 </r>
       <r>   -1.1877    1.0000 </r>
       <r>   -0.5442    1.0000 </r>
       <r>   -0.2916    1.0000 </r>
       <r>    0.4992    1.0000 </r>
       <r>    1.8314    1.0000 </r>
       <r>    2.0105    1.0000 </r>
       <r>    2.2661    1.0000 </r>
       <r>    2.3552    1.0000 </r>
       <r>    2.3798    1.0000 </r>
       <r>    3.1709    1.0000 </r>
       <r>    3.3890    1.0000 </r>
       <r>    3.5758    1.0000 </r>
       <r>    4.3187    1.0000 </r>
       <r>    4.4417    1.0000 </r>
       <r>    4.6194    1.0000 </r>
       <r>    6.0310    0.0000 </r>
       <r>    7.3661    0.0000 </r>
       <r>    7.9123    0.0000 </r>
       <r>    8.2694    0.0000 </r>
       <r>    8.3543    0.0000 </r>
       <r>    8.3819    0.0000 </r>
       <r>    8.8946    0.0000 </r>
       <r>    9.0630    0.0000 </r>
       <r>    9.2731    0.0000 </r>
       <r>   10.0133    0.0000 </r>
       <r>   10.3012    0.0000 </r>
       <r>   10.5235    0.0000 </r>
       <r>   10.8659    0.0000 </r>
       <r>   11.0238    0.0000 </r>
       <r>   11.4850    0.0000 </r>
       <r>   11.7651    0.0000 </r>
       <r>   11.8684    0.0000 </r>
       <r>   13.3321    0.0000 </r>
       <r>   13.4626    0.0000 </r>
       <r>   13.6134    0.0000 </r>
       <r>   14.3819    0.0000 </r>
       <r>   14.3871    0.0000 </r>
       <r>   14.5025    0.0000 </r>
       <r>   14.7912    0.0000 </r>
       <r>   15.2102    0.0000 </r>
       <r>   15.4157    0.0000 </r>
       <r>   15.4351    0.0000 </r>
       <r>   15.6378    0.0000 </r>
       <r>   16.1879    0.0000 </r>
       <r>   16.2377    0.0000 </r>
       <r>   16.4782    0.0000 </r>
       <r>   16.8064    0.0000 </r>
       <r>   16.9074    0.0000 </r>
       <r>   17.3185    0.0000 </r>
       <r>   18.3931    0.0000 </r>
       <r>   18.4310    0.0000 </r>
       <r>   19.4661    0.0000 </r>
       <r>   19.7116    0.0000 </r>
       <r>   20.0740    0.0000 </r>
       <r>   20.1594    0.0000 </r>
       <r>   20.2207    0.0000 </r>
       <r>   20.7333    0.0000 </r>
       <r>   20.9683    0.0000 </r>
       <r>   21.4662    0.0000 </r>
       <r>   21.5428    0.0000 </r>
       <r>   22.0883    0.0000 </r>
       <r>   22.3564    0.0000 </r>
       <r>   22.5774    0.0000 </r>
       <r>   23.0154    0.0000 </r>
       <r>   23.4228    0.0000 </r>
       <r>   23.7941    0.0000 </r>
       <r>   24.0572    0.0000 </r>
       <r>   24.2786    0.0000 </r>
       <r>   24.6664    0.0000 </r>
       <r>   24.8828    0.0000 </r>
       <r>   24.9659    0.0000 </r>
      </set>
      <set comment="kpoint 8">
       <r>  -16.1906    1.0000 </r>
       <r>  -16.1823    1.0000 </r>
       <r>  -16.1794    1.0000 </r>
       <r>  -16.1775    1.0000 </r>
       <r>  -16.1757    1.0000 </r>
       <r>  -16.1748    1.0000 </r>
       <r>  -16.1745    1.0000 </r>
       <r>  -16.1712    1.0000 </r>
       <r>  -16.1635    1.0000 </r>
       <r>  -16.1596    1.0000 </r>
       <r>  -16.1583    1.0000 </r>
       <r>  -16.1549    1.0000 </r>
       <r>  -16.1462    1.0000 </r>
       <r>  -16.1458    1.0000 </r>
       <r>  -16.1245    1.0000 </r>
       <r>  -16.1243    1.0000 </r>
       <r>  -16.1194    1.0000 </r>
       <r>  -16.1177    1.0000 </r>
       <r>  -16.1099    1.0000 </r>
       <r>  -16.1046    1.0000 </r>
       <r>   -8.3510    1.0000 </r>
       <r>   -8.0418    1.0000 </r>
       <r>   -7.4526    1.0000 </r>
       <r>   -7.0548    1.0000 </r>
       <r>   -2.1556    1.0000 </r>
       <r>   -1.2570    1.0000 </r>
       <r>   -0.5864    1.0000 </r>
       <r>   -0.4256    1.0000 </r>
       <r>    0.5158    1.0000 </r>
       <r>    1.8342    1.0000 </r>
       <r>    2.0512    1.0000 </r>
       <r>    2.3147    1.0000 </r>
       <r>    2.3653    1.0000 </r>
       <r>    2.3884    1.0000 </r>
       <r>    3.2165    1.0000 </r>
       <r>    3.4074    1.0000 </r>
       <r>    3.5602    1.0000 </r>
       <r>    4.3975    1.0000 </r>
       <r>    4.4457    1.0000 </r>
       <r>    4.5861    1.0000 </r>
       <r>    6.0721    0.0000 </r>
       <r>    7.1355    0.0000 </r>
       <r>    7.8787    0.0000 </r>
       <r>    8.2359    0.0000 </r>
       <r>    8.2682    0.0000 </r>
       <r>    8.4264    0.0000 </r>
       <r>    8.8462    0.0000 </r>
       <r>    8.9366    0.0000 </r>
       <r>    9.2982    0.0000 </r>
       <r>   10.0117    0.0000 </r>
       <r>   10.2179    0.0000 </r>
       <r>   10.4211    0.0000 </r>
       <r>   10.7338    0.0000 </r>
       <r>   10.9563    0.0000 </r>
       <r>   11.5730    0.0000 </r>
       <r>   11.6944    0.0000 </r>
       <r>   11.9128    0.0000 </r>
       <r>   13.2446    0.0000 </r>
       <r>   13.5777    0.0000 </r>
       <r>   13.6745    0.0000 </r>
       <r>   14.3754    0.0000 </r>
       <r>   14.5106    0.0000 </r>
       <r>   14.5966    0.0000 </r>
       <r>   14.9941    0.0000 </r>
       <r>   15.2785    0.0000 </r>
       <r>   15.3925    0.0000 </r>
       <r>   15.6637    0.0000 </r>
       <r>   15.9020    0.0000 </r>
       <r>   16.3309    0.0000 </r>
       <r>   16.3450    0.0000 </r>
       <r>   16.4188    0.0000 </r>
       <r>   17.0665    0.0000 </r>
       <r>   17.1529    0.0000 </r>
       <r>   17.5601    0.0000 </r>
       <r>   18.2121    0.0000 </r>
       <r>   18.6737    0.0000 </r>
       <r>   19.5134    0.0000 </r>
       <r>   19.5703    0.0000 </r>
       <r>   19.8800    0.0000 </r>
       <r>   20.1302    0.0000 </r>
       <r>   20.3284    0.0000 </r>
       <r>   20.7435    0.0000 </r>
       <r>   20.8414    0.0000 </r>
       <r>   21.5354    0.0000 </r>
       <r>   21.6851    0.0000 </r>
       <r>   22.1757    0.0000 </r>
       <r>   22.3764    0.0000 </r>
       <r>   22.7935    0.0000 </r>
       <r>   23.0217    0.0000 </r>
       <r>   23.4174    0.0000 </r>
       <r>   24.0819    0.0000 </r>
       <r>   24.2401    0.0000 </r>
       <r>   24.4111    0.0000 </r>
       <r>   24.5635    0.0000 </r>
       <r>   24.8062    0.0000 </r>
       <r>   24.9205    0.0000 </r>
      </set>
      <set comment="kpoint 9">
       <r>  -16.1893    1.0000 </r>
       <r>  -16.1825    1.0000 </r>
       <r>  -16.1800    1.0000 </r>
       <r>  -16.1764    1.0000 </r>
       <r>  -16.1756    1.0000 </r>
       <r>  -16.1755    1.0000 </r>
       <r>  -16.1738    1.0000 </r>
       <r>  -16.1718    1.0000 </r>
       <r>  -16.1637    1.0000 </r>
       <r>  -16.1594    1.0000 </r>
       <r>  -16.1589    1.0000 </r>
       <r>  -16.1541    1.0000 </r>
       <r>  -16.1464    1.0000 </r>
       <r>  -16.1452    1.0000 </r>
       <r>  -16.1251    1.0000 </r>
       <r>  -16.1237    1.0000 </r>
       <r>  -16.1203    1.0000 </r>
       <r>  -16.1172    1.0000 </r>
       <r>  -16.1098    1.0000 </r>
       <r>  -16.1048    1.0000 </r>
       <r>   -8.3149    1.0000 </r>
       <r>   -8.0117    1.0000 </r>
       <r>   -7.4371    1.0000 </r>
       <r>   -7.0555    1.0000 </r>
       <r>   -2.1954    1.0000 </r>
       <r>   -1.3308    1.0000 </r>
       <r>   -0.6385    1.0000 </r>
       <r>   -0.5680    1.0000 </r>
       <r>    0.5400    1.0000 </r>
       <r>    1.8455    1.0000 </r>
       <r>    2.0977    1.0000 </r>
       <r>    2.3556    1.0000 </r>
       <r>    2.3611    1.0000 </r>
       <r>    2.4259    1.0000 </r>
       <r>    3.2633    1.0000 </r>
       <r>    3.4269    1.0000 </r>
       <r>    3.5488    1.0000 </r>
       <r>    4.4486    1.0000 </r>
       <r>    4.4832    1.0000 </r>
       <r>    4.5467    1.0000 </r>
       <r>    6.1170    0.0000 </r>
       <r>    6.9022    0.0000 </r>
       <r>    7.8124    0.0000 </r>
       <r>    8.1381    0.0000 </r>
       <r>    8.1653    0.0000 </r>
       <r>    8.4387    0.0000 </r>
       <r>    8.8158    0.0000 </r>
       <r>    8.8353    0.0000 </r>
       <r>    9.3471    0.0000 </r>
       <r>    9.9926    0.0000 </r>
       <r>   10.1466    0.0000 </r>
       <r>   10.2864    0.0000 </r>
       <r>   10.6783    0.0000 </r>
       <r>   10.8945    0.0000 </r>
       <r>   11.6384    0.0000 </r>
       <r>   11.6805    0.0000 </r>
       <r>   11.9871    0.0000 </r>
       <r>   13.1392    0.0000 </r>
       <r>   13.6957    0.0000 </r>
       <r>   13.7381    0.0000 </r>
       <r>   14.3879    0.0000 </r>
       <r>   14.6329    0.0000 </r>
       <r>   14.6637    0.0000 </r>
       <r>   15.1374    0.0000 </r>
       <r>   15.1600    0.0000 </r>
       <r>   15.5975    0.0000 </r>
       <r>   15.8361    0.0000 </r>
       <r>   16.1832    0.0000 </r>
       <r>   16.3449    0.0000 </r>
       <r>   16.5393    0.0000 </r>
       <r>   16.6685    0.0000 </r>
       <r>   17.3374    0.0000 </r>
       <r>   17.4081    0.0000 </r>
       <r>   17.8053    0.0000 </r>
       <r>   18.0415    0.0000 </r>
       <r>   18.8356    0.0000 </r>
       <r>   19.4155    0.0000 </r>
       <r>   19.4333    0.0000 </r>
       <r>   19.6998    0.0000 </r>
       <r>   20.2856    0.0000 </r>
       <r>   20.3430    0.0000 </r>
       <r>   20.5258    0.0000 </r>
       <r>   21.0511    0.0000 </r>
       <r>   21.6217    0.0000 </r>
       <r>   21.8539    0.0000 </r>
       <r>   22.2759    0.0000 </r>
       <r>   22.4255    0.0000 </r>
       <r>   23.0004    0.0000 </r>
       <r>   23.0423    0.0000 </r>
       <r>   23.3562    0.0000 </r>
       <r>   24.0349    0.0000 </r>
       <r>   24.2729    0.0000 </r>
       <r>   24.4045    0.0000 </r>
       <r>   24.6190    0.0000 </r>
       <r>   24.8092    0.0000 </r>
       <r>   24.9628    0.0000 </r>
      </set>
      <set comment="kpoint 10">
       <r>  -16.1880    1.0000 </r>
       <r>  -16.1828    1.0000 </r>
       <r>  -16.1805    1.0000 </r>
       <r>  -16.1765    1.0000 </r>
       <r>  -16.1752    1.0000 </r>
       <r>  -16.1750    1.0000 </r>
       <r>  -16.1732    1.0000 </r>
       <r>  -16.1724    1.0000 </r>
       <r>  -16.1639    1.0000 </r>
       <r>  -16.1595    1.0000 </r>
       <r>  -16.1592    1.0000 </r>
       <r>  -16.1533    1.0000 </r>
       <r>  -16.1467    1.0000 </r>
       <r>  -16.1446    1.0000 </r>
       <r>  -16.1257    1.0000 </r>
       <r>  -16.1230    1.0000 </r>
       <r>  -16.1213    1.0000 </r>
       <r>  -16.1167    1.0000 </r>
       <r>  -16.1096    1.0000 </r>
       <r>  -16.1050    1.0000 </r>
       <r>   -8.2746    1.0000 </r>
       <r>   -7.9782    1.0000 </r>
       <r>   -7.4209    1.0000 </r>
       <r>   -7.0578    1.0000 </r>
       <r>   -2.2380    1.0000 </r>
       <r>   -1.4072    1.0000 </r>
       <r>   -0.7162    1.0000 </r>
       <r>   -0.7003    1.0000 </r>
       <r>    0.5727    1.0000 </r>
       <r>    1.8649    1.0000 </r>
       <r>    2.1499    1.0000 </r>
       <r>    2.3522    1.0000 </r>
       <r>    2.4046    1.0000 </r>
       <r>    2.4672    1.0000 </r>
       <r>    3.3106    1.0000 </r>
       <r>    3.4451    1.0000 </r>
       <r>    3.5446    1.0000 </r>
       <r>    4.4499    1.0000 </r>
       <r>    4.5023    1.0000 </r>
       <r>    4.5734    1.0000 </r>
       <r>    6.1654    0.0000 </r>
       <r>    6.6704    0.0000 </r>
       <r>    7.7163    0.0000 </r>
       <r>    7.9944    0.0000 </r>
       <r>    8.0491    0.0000 </r>
       <r>    8.4107    0.0000 </r>
       <r>    8.6945    0.0000 </r>
       <r>    8.8434    0.0000 </r>
       <r>    9.4095    0.0000 </r>
       <r>    9.9522    0.0000 </r>
       <r>   10.0972    0.0000 </r>
       <r>   10.1129    0.0000 </r>
       <r>   10.7194    0.0000 </r>
       <r>   10.8558    0.0000 </r>
       <r>   11.5996    0.0000 </r>
       <r>   11.8143    0.0000 </r>
       <r>   12.0879    0.0000 </r>
       <r>   13.0234    0.0000 </r>
       <r>   13.7974    0.0000 </r>
       <r>   13.8124    0.0000 </r>
       <r>   14.4229    0.0000 </r>
       <r>   14.6619    0.0000 </r>
       <r>   14.7006    0.0000 </r>
       <r>   15.1115    0.0000 </r>
       <r>   15.2243    0.0000 </r>
       <r>   15.8223    0.0000 </r>
       <r>   15.9749    0.0000 </r>
       <r>   16.4679    0.0000 </r>
       <r>   16.5554    0.0000 </r>
       <r>   16.7874    0.0000 </r>
       <r>   16.9273    0.0000 </r>
       <r>   17.6138    0.0000 </r>
       <r>   17.6700    0.0000 </r>
       <r>   17.8852    0.0000 </r>
       <r>   18.0468    0.0000 </r>
       <r>   18.7984    0.0000 </r>
       <r>   19.2250    0.0000 </r>
       <r>   19.5368    0.0000 </r>
       <r>   19.5410    0.0000 </r>
       <r>   20.1740    0.0000 </r>
       <r>   20.3214    0.0000 </r>
       <r>   20.6301    0.0000 </r>
       <r>   21.2839    0.0000 </r>
       <r>   21.7229    0.0000 </r>
       <r>   22.0505    0.0000 </r>
       <r>   22.3886    0.0000 </r>
       <r>   22.5336    0.0000 </r>
       <r>   22.9186    0.0000 </r>
[...]
       <r>   23.0841    0.0000 </r>
      </set>
      <set comment="kpoint 224">
       <r>  -16.1944    1.0000 </r>
       <r>  -16.1944    1.0000 </r>
       <r>  -16.1944    1.0000 </r>
       <r>  -16.1944    1.0000 </r>
       <r>  -16.1673    1.0000 </r>
       <r>  -16.1673    1.0000 </r>
       <r>  -16.1673    1.0000 </r>
       <r>  -16.1673    1.0000 </r>
       <r>  -16.1557    1.0000 </r>
       <r>  -16.1557    1.0000 </r>
       <r>  -16.1557    1.0000 </r>
       <r>  -16.1557    1.0000 </r>
       <r>  -16.1337    1.0000 </r>
       <r>  -16.1337    1.0000 </r>
       <r>  -16.1337    1.0000 </r>
       <r>  -16.1337    1.0000 </r>
       <r>  -16.1103    1.0000 </r>
       <r>  -16.1103    1.0000 </r>
       <r>  -16.1103    1.0000 </r>
       <r>  -16.1103    1.0000 </r>
       <r>   -7.2409    1.0000 </r>
       <r>   -7.2409    1.0000 </r>
       <r>   -7.2409    1.0000 </r>
       <r>   -7.2409    1.0000 </r>
       <r>   -1.5574    1.0000 </r>
       <r>   -1.5574    1.0000 </r>
       <r>   -1.5574    1.0000 </r>
       <r>   -1.5574    1.0000 </r>
       <r>    0.7505    1.0000 </r>
       <r>    0.7505    1.0000 </r>
       <r>    0.7505    1.0000 </r>
       <r>    0.7505    1.0000 </r>
       <r>    1.5529    1.0000 </r>
       <r>    1.5529    1.0000 </r>
       <r>    1.5529    1.0000 </r>
       <r>    1.5529    1.0000 </r>
       <r>    3.6835    1.0000 </r>
       <r>    3.6835    1.0000 </r>
       <r>    3.6835    1.0000 </r>
       <r>    3.6835    1.0000 </r>
       <r>    7.5657    0.0000 </r>
       <r>    7.5657    0.0000 </r>
       <r>    7.5657    0.0000 </r>
       <r>    7.5657    0.0000 </r>
       <r>    9.7194    0.0000 </r>
       <r>    9.7194    0.0000 </r>
       <r>    9.7194    0.0000 </r>
       <r>    9.7194    0.0000 </r>
       <r>   11.5335    0.0000 </r>
       <r>   11.5335    0.0000 </r>
       <r>   11.5335    0.0000 </r>
       <r>   11.5335    0.0000 </r>
       <r>   12.0723    0.0000 </r>
       <r>   12.0723    0.0000 </r>
       <r>   12.0723    0.0000 </r>
       <r>   12.0723    0.0000 </r>
       <r>   14.6494    0.0000 </r>
       <r>   14.6494    0.0000 </r>
       <r>   14.6494    0.0000 </r>
       <r>   14.6494    0.0000 </r>
       <r>   15.6528    0.0000 </r>
       <r>   15.6528    0.0000 </r>
       <r>   15.6528    0.0000 </r>
       <r>   15.6528    0.0000 </r>
       <r>   17.1454    0.0000 </r>
       <r>   17.1454    0.0000 </r>
       <r>   17.1454    0.0000 </r>
       <r>   17.1454    0.0000 </r>
       <r>   17.6230    0.0000 </r>
       <r>   17.6230    0.0000 </r>
       <r>   17.6230    0.0000 </r>
       <r>   17.6230    0.0000 </r>
       <r>   18.8591    0.0000 </r>
       <r>   18.8591    0.0000 </r>
       <r>   18.8591    0.0000 </r>
       <r>   18.8591    0.0000 </r>
       <r>   19.9707    0.0000 </r>
       <r>   19.9707    0.0000 </r>
       <r>   19.9707    0.0000 </r>
       <r>   19.9708    0.0000 </r>
       <r>   20.3570    0.0000 </r>
       <r>   20.3570    0.0000 </r>
       <r>   20.3571    0.0000 </r>
       <r>   20.3571    0.0000 </r>
       <r>   21.2766    0.0000 </r>
       <r>   21.2766    0.0000 </r>
       <r>   21.2768    0.0000 </r>
       <r>   21.2785    0.0000 </r>
       <r>   22.2245    0.0000 </r>
       <r>   22.2302    0.0000 </r>
       <r>   22.2395    0.0000 </r>
       <r>   22.3153    0.0000 </r>
       <r>   22.7058    0.0000 </r>
       <r>   22.7266    0.0000 </r>
       <r>   22.8785    0.0000 </r>
       <r>   22.9897    0.0000 </r>
      </set>
     </set>
    </set>
   </array>
  </eigenvalues>
  <separator name="orbital magnetization" >
   <v name="MAGDIPOLOUT">      0.00000000      0.00000000      0.00000000</v>
  </separator>
  <dos>
   <i name="efermi">      5.21444753 </i>
   <total>
    <array>
     <dimension dim="1">gridpoints</dimension>
     <dimension dim="2">spin</dimension>
     <field>energy</field>
     <field>total</field>
     <field>integrated</field>
     <set>
      <set comment="spin 1">
       <r>   -18.2887     0.0000     0.0000 </r>
       <r>   -18.1353     0.0000     0.0000 </r>
       <r>   -17.9819     0.0000     0.0000 </r>
       <r>   -17.8286     0.0000     0.0000 </r>
       <r>   -17.6752     0.0000     0.0000 </r>
       <r>   -17.5218     0.0000     0.0000 </r>
       <r>   -17.3685     0.0000     0.0000 </r>
       <r>   -17.2151     0.0000     0.0000 </r>
       <r>   -17.0617     0.0000     0.0000 </r>
       <r>   -16.9084     0.0000     0.0000 </r>
       <r>   -16.7550     0.0000     0.0000 </r>
       <r>   -16.6016     0.0000     0.0000 </r>
       <r>   -16.4483     0.0000     0.0000 </r>
       <r>   -16.2949     0.0000     0.0000 </r>
       <r>   -16.1416   170.7121    26.1812 </r>
       <r>   -15.9882     0.0000    40.0000 </r>
       <r>   -15.8348     0.0000    40.0000 </r>
       <r>   -15.6815     0.0000    40.0000 </r>
       <r>   -15.5281     0.0000    40.0000 </r>
       <r>   -15.3747     0.0000    40.0000 </r>
       <r>   -15.2214     0.0000    40.0000 </r>
       <r>   -15.0680     0.0000    40.0000 </r>
       <r>   -14.9146     0.0000    40.0000 </r>
       <r>   -14.7613     0.0000    40.0000 </r>
       <r>   -14.6079     0.0000    40.0000 </r>
       <r>   -14.4545     0.0000    40.0000 </r>
       <r>   -14.3012     0.0000    40.0000 </r>
       <r>   -14.1478     0.0000    40.0000 </r>
       <r>   -13.9945     0.0000    40.0000 </r>
       <r>   -13.8411     0.0000    40.0000 </r>
       <r>   -13.6877     0.0000    40.0000 </r>
       <r>   -13.5344     0.0000    40.0000 </r>
       <r>   -13.3810     0.0000    40.0000 </r>
       <r>   -13.2276     0.0000    40.0000 </r>
       <r>   -13.0743     0.0000    40.0000 </r>
       <r>   -12.9209     0.0000    40.0000 </r>
       <r>   -12.7675     0.0000    40.0000 </r>
       <r>   -12.6142     0.0000    40.0000 </r>
       <r>   -12.4608     0.0000    40.0000 </r>
       <r>   -12.3074     0.0000    40.0000 </r>
       <r>   -12.1541     0.0000    40.0000 </r>
       <r>   -12.0007     0.0000    40.0000 </r>
       <r>   -11.8474     0.0000    40.0000 </r>
       <r>   -11.6940     0.0000    40.0000 </r>
       <r>   -11.5406     0.0000    40.0000 </r>
       <r>   -11.3873     0.0000    40.0000 </r>
       <r>   -11.2339     0.0000    40.0000 </r>
       <r>   -11.0805     0.0000    40.0000 </r>
       <r>   -10.9272     0.0000    40.0000 </r>
       <r>   -10.7738     0.0000    40.0000 </r>
       <r>   -10.6204     0.0000    40.0000 </r>
       <r>   -10.4671     0.0000    40.0000 </r>
       <r>   -10.3137     0.0000    40.0000 </r>
       <r>   -10.1603     0.0000    40.0000 </r>
       <r>   -10.0070     0.0000    40.0000 </r>
       <r>    -9.8536     0.0000    40.0000 </r>
       <r>    -9.7002     0.0000    40.0000 </r>
       <r>    -9.5469     0.0000    40.0000 </r>
       <r>    -9.3935     0.0000    40.0000 </r>
       <r>    -9.2402     0.0000    40.0000 </r>
       <r>    -9.0868     0.0000    40.0000 </r>
       <r>    -8.9334     0.0000    40.0000 </r>
       <r>    -8.7801     0.0000    40.0000 </r>
       <r>    -8.6267     0.0000    40.0000 </r>
       <r>    -8.4733     0.1466    40.0225 </r>
       <r>    -8.3200     1.3955    40.3837 </r>
       <r>    -8.1666     1.0029    40.7163 </r>
       <r>    -8.0132     1.0310    41.0867 </r>
       <r>    -7.8599     0.7888    41.3174 </r>
       <r>    -7.7065     3.4451    41.9569 </r>
       <r>    -7.5531     1.2195    42.3567 </r>
       <r>    -7.3998    10.7051    44.3471 </r>
       <r>    -7.2464     8.8890    46.6043 </r>
       <r>    -7.0931     0.6767    47.7734 </r>
       <r>    -6.9397     0.0000    48.0000 </r>
       <r>    -6.7863     0.0000    48.0000 </r>
       <r>    -6.6330     0.0000    48.0000 </r>
       <r>    -6.4796     0.0000    48.0000 </r>
       <r>    -6.3262     0.0000    48.0000 </r>
       <r>    -6.1729     0.0000    48.0000 </r>
       <r>    -6.0195     0.0000    48.0000 </r>
       <r>    -5.8661     0.0000    48.0000 </r>
       <r>    -5.7128     0.0000    48.0000 </r>
       <r>    -5.5594     0.0000    48.0000 </r>
       <r>    -5.4060     0.0000    48.0000 </r>
       <r>    -5.2527     0.0000    48.0000 </r>
       <r>    -5.0993     0.0000    48.0000 </r>
       <r>    -4.9459     0.0000    48.0000 </r>
       <r>    -4.7926     0.0000    48.0000 </r>
       <r>    -4.6392     0.0000    48.0000 </r>
       <r>    -4.4859     0.0000    48.0000 </r>
       <r>    -4.3325     0.0000    48.0000 </r>
       <r>    -4.1791     0.0000    48.0000 </r>
       <r>    -4.0258     0.0000    48.0000 </r>
       <r>    -3.8724     0.0000    48.0000 </r>
       <r>    -3.7190     0.0000    48.0000 </r>
       <r>    -3.5657     0.0000    48.0000 </r>
       <r>    -3.4123     0.0000    48.0000 </r>
       <r>    -3.2589     0.0000    48.0000 </r>
       <r>    -3.1056     0.0000    48.0000 </r>
       <r>    -2.9522     0.0000    48.0000 </r>
       <r>    -2.7988     0.2683    48.0412 </r>
       <r>    -2.6455     2.2633    48.4185 </r>
       <r>    -2.4921     1.1115    48.8044 </r>
       <r>    -2.3388     2.0405    49.2504 </r>
       <r>    -2.1854     2.0167    49.7289 </r>
       <r>    -2.0320     2.1858    50.4513 </r>
       <r>    -1.8787     2.0567    51.0654 </r>
       <r>    -1.7253     2.4619    51.8419 </r>
       <r>    -1.5719     3.1229    52.6486 </r>
       <r>    -1.4186     3.2828    53.7445 </r>
       <r>    -1.2652     2.2500    54.4701 </r>
       <r>    -1.1118     0.7010    54.7682 </r>
       <r>    -0.9585     1.0912    54.9799 </r>
       <r>    -0.8051     0.1282    55.0643 </r>
       <r>    -0.6517     0.3124    55.1729 </r>
       <r>    -0.4984     0.5165    55.3024 </r>
       <r>    -0.3450     0.3158    55.4591 </r>
       <r>    -0.1917     0.2880    55.5620 </r>
       <r>    -0.0383     0.4983    55.6925 </r>
       <r>     0.1151     0.8306    55.9131 </r>
       <r>     0.2684     0.0000    56.0000 </r>
       <r>     0.4218     1.3310    56.2041 </r>
       <r>     0.5752     0.7935    56.5681 </r>
       <r>     0.7285     0.9395    56.7959 </r>
       <r>     0.8819     1.1927    57.3526 </r>
       <r>     1.0353     1.3246    57.8906 </r>
       <r>     1.1886     1.7898    58.3013 </r>
       <r>     1.3420     1.4343    58.7468 </r>
       <r>     1.4954     1.7173    59.1652 </r>
       <r>     1.6487     4.4631    60.1934 </r>
       <r>     1.8021     2.4062    60.8601 </r>
       <r>     1.9555     2.6264    61.5635 </r>
       <r>     2.1088     3.6594    62.5255 </r>
       <r>     2.2622     3.1841    63.5597 </r>
       <r>     2.4155     4.1260    64.6685 </r>
       <r>     2.5689     2.9863    65.7080 </r>
       <r>     2.7223     3.2472    66.4891 </r>
       <r>     2.8756     3.2427    67.3366 </r>
       <r>     3.0290     3.5717    68.6013 </r>
       <r>     3.1824     3.0426    70.0470 </r>
       <r>     3.3357     2.5878    70.8433 </r>
       <r>     3.4891     5.4980    72.2093 </r>
       <r>     3.6425     3.2299    73.1829 </r>
       <r>     3.7958     2.5459    74.4619 </r>
       <r>     3.9492     1.8622    75.2499 </r>
       <r>     4.1026     3.6379    76.0758 </r>
       <r>     4.2559     2.5828    76.8157 </r>
       <r>     4.4093     1.5953    77.3697 </r>
       <r>     4.5626     2.4899    78.1229 </r>
       <r>     4.7160     4.3667    79.2679 </r>
       <r>     4.8694     0.7007    79.4735 </r>
       <r>     5.0227     0.5353    79.9303 </r>
       <r>     5.1761     0.1747    80.0000 </r>
       <r>     5.3295     0.0000    80.0000 </r>
       <r>     5.4828     0.0000    80.0000 </r>
       <r>     5.6362     0.0000    80.0000 </r>
       <r>     5.7896     0.1164    80.0357 </r>
       <r>     5.9429     0.7483    80.1683 </r>
       <r>     6.0963     0.7001    80.3842 </r>
       <r>     6.2497     1.6193    80.6948 </r>
       <r>     6.4030     4.3838    81.5741 </r>
       <r>     6.5564     2.2467    82.1303 </r>
       <r>     6.7098     1.6312    82.7234 </r>
       <r>     6.8631     1.8055    83.1698 </r>
       <r>     7.0165     3.9986    84.1579 </r>
       <r>     7.1698     1.7319    84.7031 </r>
       <r>     7.3232     1.0666    85.1457 </r>
       <r>     7.4766     3.5786    86.0756 </r>
       <r>     7.6299     4.4993    87.1365 </r>
       <r>     7.7833     3.7448    88.3690 </r>
       <r>     7.9367     2.7853    89.3379 </r>
       <r>     8.0900     3.3154    90.0710 </r>
       <r>     8.2434     2.5197    90.8239 </r>
       <r>     8.3968     4.4029    92.0056 </r>
       <r>     8.5501     2.8219    93.1113 </r>
       <r>     8.7035     2.3233    93.8652 </r>
       <r>     8.8569     3.4484    94.6896 </r>
       <r>     9.0102     1.5406    95.3970 </r>
       <r>     9.1636     1.4817    95.9594 </r>
       <r>     9.3169     1.9338    96.4573 </r>
       <r>     9.4703     2.0824    96.9890 </r>
       <r>     9.6237     2.8008    97.6349 </r>
       <r>     9.7770     4.0620    98.8194 </r>
       <r>     9.9304     3.9798    99.9229 </r>
       <r>    10.0838     2.1834   100.8170 </r>
       <r>    10.2371     0.7489   101.1684 </r>
       <r>    10.3905     1.0327   101.5155 </r>
       <r>    10.5439     1.5784   102.0010 </r>
       <r>    10.6972     2.1142   102.5207 </r>
       <r>    10.8506     3.2917   103.3530 </r>
       <r>    11.0040     1.7776   103.9244 </r>
       <r>    11.1573     1.9649   104.3996 </r>
       <r>    11.3107     1.2754   104.7938 </r>
       <r>    11.4641     1.9751   105.2761 </r>
       <r>    11.6174     1.4328   106.0858 </r>
       <r>    11.7708     0.6710   106.5404 </r>
       <r>    11.9241     0.8479   106.9425 </r>
       <r>    12.0775     2.1782   107.4144 </r>
       <r>    12.2309     5.4173   108.8576 </r>
       <r>    12.3842     2.5257   109.5391 </r>
       <r>    12.5376     2.2515   110.2739 </r>
       <r>    12.6910     1.9379   110.7615 </r>
       <r>    12.8443     2.4088   111.4051 </r>
       <r>    12.9977     3.0455   112.2439 </r>
       <r>    13.1511     2.9192   113.0281 </r>
       <r>    13.3044     2.8606   113.8137 </r>
       <r>    13.4578     1.7666   114.3870 </r>
       <r>    13.6112     2.1507   114.9995 </r>
       <r>    13.7645     2.5309   115.7007 </r>
       <r>    13.9179     2.6012   116.4704 </r>
       <r>    14.0712     3.2809   117.1639 </r>
       <r>    14.2246     2.1780   117.7894 </r>
       <r>    14.3780     2.0064   118.4773 </r>
       <r>    14.5313     3.3793   119.4022 </r>
       <r>    14.6847     5.7837   120.8781 </r>
       <r>    14.8381     4.0229   122.2598 </r>
       <r>    14.9914     3.1511   123.2065 </r>
       <r>    15.1448     4.6078   124.3942 </r>
       <r>    15.2982     3.4353   125.5447 </r>
       <r>    15.4515     2.3922   126.4115 </r>
       <r>    15.6049     3.5061   127.4127 </r>
       <r>    15.7583     4.3195   128.6446 </r>
       <r>    15.9116     2.3779   129.6861 </r>
       <r>    16.0650     1.9310   130.4033 </r>
       <r>    16.2183     1.8697   131.1350 </r>
       <r>    16.3717     3.6614   132.2758 </r>
       <r>    16.5251     5.9664   133.7990 </r>
       <r>    16.6784     3.3876   134.9213 </r>
       <r>    16.8318     3.1022   135.9936 </r>
       <r>    16.9852     3.5861   136.9428 </r>
       <r>    17.1385     3.9028   137.8396 </r>
       <r>    17.2919     2.3094   138.9345 </r>
       <r>    17.4453     3.2645   139.8221 </r>
       <r>    17.5986     5.0433   141.0235 </r>
       <r>    17.7520     4.5747   142.9784 </r>
       <r>    17.9054     2.9618   143.9989 </r>
       <r>    18.0587     2.6161   144.7048 </r>
       <r>    18.2121     2.4253   145.3452 </r>
       <r>    18.3655     2.6030   146.0956 </r>
       <r>    18.5188     3.9683   147.1354 </r>
       <r>    18.6722     2.6288   148.0817 </r>
       <r>    18.8255     4.9638   149.2523 </r>
       <r>    18.9789     3.6701   150.6254 </r>
       <r>    19.1323     4.6185   152.0922 </r>
       <r>    19.2856     4.0231   153.3045 </r>
       <r>    19.4390     3.1980   154.1422 </r>
       <r>    19.5924     2.9103   155.0446 </r>
       <r>    19.7457     4.5934   156.2402 </r>
       <r>    19.8991     3.1997   157.1782 </r>
       <r>    20.0525     3.0288   158.1520 </r>
       <r>    20.2058     4.6840   159.3434 </r>
       <r>    20.3592     5.7089   160.6791 </r>
       <r>    20.5126     4.4840   162.0359 </r>
       <r>    20.6659     3.7539   163.0847 </r>
       <r>    20.8193     3.7980   164.2610 </r>
       <r>    20.9726     3.1962   165.2313 </r>
       <r>    21.1260     4.1463   166.4305 </r>
       <r>    21.2794     4.0553   167.7916 </r>
       <r>    21.4327     4.4701   169.0516 </r>
       <r>    21.5861     3.9913   170.2996 </r>
       <r>    21.7395     1.7007   171.1448 </r>
       <r>    21.8928     4.3969   172.2725 </r>
       <r>    22.0462     3.4609   173.4504 </r>
       <r>    22.1996     4.8638   174.8709 </r>
       <r>    22.3529     4.4459   176.6104 </r>
       <r>    22.5063     2.6834   177.4472 </r>
       <r>    22.6597     3.5660   178.4398 </r>
       <r>    22.8130     4.3048   179.6959 </r>
       <r>    22.9664     5.7876   181.0840 </r>
       <r>    23.1198     4.2219   182.3171 </r>
       <r>    23.2731     4.1659   183.6121 </r>
       <r>    23.4265     4.6430   185.0424 </r>
       <r>    23.5798     2.7081   185.9778 </r>
       <r>    23.7332     2.6668   186.7661 </r>
       <r>    23.8866     2.6395   187.5477 </r>
       <r>    24.0399     2.2004   188.1321 </r>
       <r>    24.1933     2.1546   188.8037 </r>
       <r>    24.3467     3.0394   189.6983 </r>
       <r>    24.5000     2.0741   190.3806 </r>
       <r>    24.6534     0.9125   190.7024 </r>
       <r>    24.8068     1.3647   191.1557 </r>
       <r>    24.9601     1.0020   191.3858 </r>
       <r>    25.1135     0.5797   191.5621 </r>
       <r>    25.2669     0.3763   191.6916 </r>
       <r>    25.4202     0.4708   191.8668 </r>
       <r>    25.5736     0.4659   191.9822 </r>
       <r>    25.7269     0.0000   192.0000 </r>
       <r>    25.8803     0.0000   192.0000 </r>
       <r>    26.0337     0.0000   192.0000 </r>
       <r>    26.1870     0.0000   192.0000 </r>
       <r>    26.3404     0.0000   192.0000 </r>
       <r>    26.4938     0.0000   192.0000 </r>
       <r>    26.6471     0.0000   192.0000 </r>
       <r>    26.8005     0.0000   192.0000 </r>
       <r>    26.9539     0.0000   192.0000 </r>
       <r>    27.1072     0.0000   192.0000 </r>
       <r>    27.2606     0.0000   192.0000 </r>
       <r>    27.4140     0.0000   192.0000 </r>
       <r>    27.5673     0.0000   192.0000 </r>
       <r>    27.7207     0.0000   192.0000 </r>
      </set>
     </set>
    </array>
   </total>
  </dos>
 </calculation>
 <structure name="finalpos" >
  <crystal>
   <varray name="basis" >
    <v>       4.17036974       0.00000000       0.00000000 </v>
    <v>       0.00000000       4.54642993       0.00000000 </v>
    <v>       0.00000000       0.00000000      11.58057962 </v>
   </varray>
   <i name="volume">    219.57119203 </i>
   <varray name="rec_basis" >
    <v>       0.23978689       0.00000000       0.00000000 </v>
    <v>       0.00000000       0.21995280       0.00000000 </v>
    <v>       0.00000000       0.00000000       0.08635146 </v>
   </varray>
  </crystal>
  <varray name="positions" >
   <v>       0.25000000       0.11267971       0.11682412 </v>
   <v>       0.75000000       0.88732029       0.88317588 </v>
   <v>       0.75000000       0.61267971       0.38317588 </v>
   <v>       0.25000000       0.38732029       0.61682412 </v>
   <v>       0.75000000       0.51878540       0.14519304 </v>
   <v>       0.25000000       0.48121460       0.85480696 </v>
   <v>       0.25000000       0.01878540       0.35480696 </v>
   <v>       0.75000000       0.98121460       0.64519304 </v>
  </varray>
 </structure>
</modeling>
