 vasp.5.4.4.18Apr17-6-g9f103f2a35 (build Mar 20 2018 18:07:30) complex           
 executed on             LinuxGNU date 2020.07.02  19:54:11
 running on    8 total cores
 distrk:  each k-point on    8 cores,    1 groups
 distr:  one band on NCORES_PER_BAND=   1 cores,    8 groups


--------------------------------------------------------------------------------------------------------


 INCAR:
 POTCAR:    PAW_PBE Te 08Apr2002                  
 POTCAR:    PAW_PBE Pb_d 06Sep2000                

 ----------------------------------------------------------------------------- 
|                                                                             |
|           W    W    AA    RRRRR   N    N  II  N    N   GGGG   !!!           |
|           W    W   A  A   R    R  NN   N  II  NN   N  G    G  !!!           |
|           W    W  A    A  R    R  N N  N  II  N N  N  G       !!!           |
|           W WW W  AAAAAA  RRRRR   N  N N  II  N  N N  G  GGG   !            |
|           WW  WW  A    A  R   R   N   NN  II  N   NN  G    G                |
|           W    W  A    A  R    R  N    N  II  N    N   GGGG   !!!           |
|                                                                             |
|      For optimal performance we recommend to set                            |
|        NCORE= 4 - approx SQRT( number of cores)                             |
|      NCORE specifies how many cores store one orbital (NPAR=cpu/NCORE).     |
|      This setting can  greatly improve the performance of VASP for DFT.     |
|      The default,   NCORE=1            might be grossly inefficient         |
|      on modern multi-core architectures or massively parallel machines.     |
|      Do your own testing !!!!                                               |
|      Unfortunately you need to use the default for GW and RPA calculations. |
|      (for HF NCORE is supported but not extensively tested yet)             |
|                                                                             |
 ----------------------------------------------------------------------------- 

 POTCAR:    PAW_PBE Te 08Apr2002                  
   VRHFIN =Te: s2p4                                                             
   LEXCH  = PE                                                                  
   EATOM  =   223.2721 eV,   16.4100 Ry                                         
                                                                                
   TITEL  = PAW_PBE Te 08Apr2002                                                
   LULTRA =        F    use ultrasoft PP ?                                      
   IUNSCR =        1    unscreen: 0-lin 1-nonlin 2-no                           
   RPACOR =    2.200    partial core radius                                     
   POMASS =  127.600; ZVAL   =    6.000    mass and valenz                      
   RCORE  =    2.300    outmost cutoff radius                                   
   RWIGS  =    2.900; RWIGS  =    1.535    wigner-seitz radius (au A)           
   ENMAX  =  174.982; ENMIN  =  131.236 eV                                      
   ICORE  =        3    local potential                                         
   LCOR   =        T    correct aug charges                                     
   LPAW   =        T    paw PP                                                  
   EAUG   =  368.792                                                            
   DEXC   =    0.000                                                            
   RMAX   =    2.345    core radius for proj-oper                               
   RAUG   =    1.300    factor for augmentation sphere                          
   RDEP   =    2.397    radius for radial grids                                 
   RDEPT  =    2.174    core radius for aug-charge                              
                                                                                
   Atomic configuration                                                         
   13 entries                                                                   
     n  l   j            E        occ.                                          
     1  0  0.50    -31621.2075   2.0000                                         
     2  0  0.50     -4848.7941   2.0000                                         
     2  1  1.50     -4352.1960   6.0000                                         
     3  0  0.50      -964.9612   2.0000                                         
     3  1  1.50      -803.6179   6.0000                                         
     3  2  2.50      -559.8710  10.0000                                         
     4  0  0.50      -164.3522   2.0000                                         
     4  1  1.50      -114.3756   6.0000                                         
     4  2  2.50       -41.6483  10.0000                                         
     5  0  0.50       -15.1072   2.0000                                         
     5  1  0.50        -5.9526   4.0000                                         
     5  2  1.50        -5.4423   0.0000                                         
     4  3  2.50        -5.4423   0.0000                                         
   Description                                                                  
     l       E           TYP  RCUT    TYP  RCUT                                 
     0    -15.1072389     23  2.300                                             
     0    -16.4678215     23  2.300                                             
     1     -5.9526306     23  2.300                                             
     1     -2.4873968     23  2.300                                             
     2     -5.4423304     23  2.300                                             
     3     -1.3605826     23  2.300                                             
  local pseudopotential read in
  partial core-charges read in
  partial kinetic energy density read in
  atomic valenz-charges read in
  non local Contribution for L=           0  read in
    real space projection operators read in
  non local Contribution for L=           0  read in
    real space projection operators read in
  non local Contribution for L=           1  read in
    real space projection operators read in
  non local Contribution for L=           1  read in
    real space projection operators read in
  non local Contribution for L=           2  read in
    real space projection operators read in
    PAW grid and wavefunctions read in

   number of l-projection  operators is LMAX  =           5
   number of lm-projection operators is LMMAX =          13

 POTCAR:    PAW_PBE Pb_d 06Sep2000                
   VRHFIN =Pb:                                                                  
   LEXCH  = PE                                                                  
   EATOM  =  1661.6185 eV,  122.1255 Ry                                         
                                                                                
   TITEL  = PAW_PBE Pb_d 06Sep2000                                              
   LULTRA =        F    use ultrasoft PP ?                                      
   IUNSCR =        1    unscreen: 0-lin 1-nonlin 2-no                           
   RPACOR =    2.200    partial core radius                                     
   POMASS =  207.200; ZVAL   =   14.000    mass and valenz                      
   RCORE  =    2.500    outmost cutoff radius                                   
   RWIGS  =    3.260; RWIGS  =    1.725    wigner-seitz radius (au A)           
   ENMAX  =  237.835; ENMIN  =  178.376 eV                                      
   ICORE  =        3    local potential                                         
   LCOR   =        T    correct aug charges                                     
   LPAW   =        T    paw PP                                                  
   EAUG   =  391.914                                                            
   DEXC   =    0.000                                                            
   RMAX   =    2.565    core radius for proj-oper                               
   RAUG   =    1.300    factor for augmentation sphere                          
   RDEP   =    2.643    radius for radial grids                                 
   RDEPT  =    2.092    core radius for aug-charge                              
                                                                                
   Atomic configuration                                                         
   16 entries                                                                   
     n  l   j            E        occ.                                          
     1  0  0.50    -88091.8466   2.0000                                         
     2  0  0.50    -15753.4197   2.0000                                         
     2  1  1.50    -13508.1797   6.0000                                         
     3  0  0.50     -3781.7194   2.0000                                         
     3  1  1.50     -3138.2529   6.0000                                         
     3  2  2.50     -2483.2977  10.0000                                         
     4  0  0.50      -856.2895   2.0000                                         
     4  1  1.50      -645.4942   6.0000                                         
     4  2  2.50      -401.8768  10.0000                                         
     4  3  3.50      -132.9059  14.0000                                         
     5  0  0.50      -144.0950   2.0000                                         
     5  1  1.50       -85.7879   6.0000                                         
     5  2  2.50       -21.1769  10.0000                                         
     6  0  0.50       -12.0372   2.0000                                         
     6  1  1.50        -3.4971   2.0000                                         
     5  3  2.50        -2.7212   0.0000                                         
   Description                                                                  
     l       E           TYP  RCUT    TYP  RCUT                                 
     2    -21.1768523     23  2.500                                             
     2      1.3605826     23  2.500                                             
     0    -12.0371562     23  2.500                                             
     0     13.6058260     23  2.500                                             
     1     -3.4971339     23  2.500                                             
     1     13.6058260     23  2.500                                             
     3     -1.3605826      7  2.500                                             
  local pseudopotential read in
  partial core-charges read in
  partial kinetic energy density read in
  atomic valenz-charges read in
  non local Contribution for L=           2  read in
    real space projection operators read in
  non local Contribution for L=           2  read in
    real space projection operators read in
  non local Contribution for L=           0  read in
    real space projection operators read in
  non local Contribution for L=           0  read in
    real space projection operators read in
  non local Contribution for L=           1  read in
    real space projection operators read in
  non local Contribution for L=           1  read in
    real space projection operators read in
    PAW grid and wavefunctions read in

   number of l-projection  operators is LMAX  =           6
   number of lm-projection operators is LMMAX =          18

  PAW_PBE Te 08Apr2002                  :
 energy of atom  1       EATOM= -223.2721
 kinetic energy error for atom=    0.0004 (will be added to EATOM!!)
  PAW_PBE Pb_d 06Sep2000                :
 energy of atom  2       EATOM=-1661.6185
 kinetic energy error for atom=    0.0014 (will be added to EATOM!!)


 POSCAR: Te1 Pb1                                 
  positions in direct lattice
  No initial velocities read in
 exchange correlation table for  LEXCH =        8
   RHO(1)=    0.500       N(1)  =     2000
   RHO(2)=  100.500       N(2)  =     4000



--------------------------------------------------------------------------------------------------------


 ion  position               nearest neighbor table
   1  0.000  0.000  0.000-   2 3.28   2 3.28   2 3.28   2 3.28   2 3.28   2 3.28
   2  0.500  0.500  0.500-   1 3.28   1 3.28   1 3.28   1 3.28   1 3.28   1 3.28

  LATTYP: Found a face centered cubic cell.
 ALAT       =     6.5686239705
  
  Lattice vectors:
  
 A1 = (   0.0000000000,   3.2843119853,   3.2843119853)
 A2 = (   3.2843119853,   0.0000000000,   3.2843119853)
 A3 = (   3.2843119853,   3.2843119853,   0.0000000000)


Analysis of symmetry for initial positions (statically):
=====================================================================
 Subroutine PRICEL returns:
 Original cell was already a primitive cell.
 

 Routine SETGRP: Setting up the symmetry group for a 
 face centered cubic supercell.


 Subroutine GETGRP returns: Found 48 space group operations
 (whereof 48 operations were pure point group operations)
 out of a pool of 48 trial point group operations.


The static configuration has the point symmetry O_h .


Analysis of symmetry for dynamics (positions and initial velocities):
=====================================================================
 Subroutine PRICEL returns:
 Original cell was already a primitive cell.
 

 Routine SETGRP: Setting up the symmetry group for a 
 face centered cubic supercell.


 Subroutine GETGRP returns: Found 48 space group operations
 (whereof 48 operations were pure point group operations)
 out of a pool of 48 trial point group operations.


The dynamic configuration has the point symmetry O_h .


 Subroutine INISYM returns: Found 48 space group operations
 (whereof 48 operations are pure point group operations),
 and found     1 'primitive' translations



 KPOINTS: Kpoints with grid resolution = 0.020 / A

Automatic generation of k-mesh.
Space group operators:
 irot       det(A)        alpha          n_x          n_y          n_z        tau_x        tau_y        tau_z
    1     1.000000     0.000000     1.000000     0.000000     0.000000     0.000000     0.000000     0.000000
    2    -1.000000     0.000000     1.000000     0.000000     0.000000     0.000000     0.000000     0.000000
    3     1.000000   120.000000    -0.577350    -0.577350    -0.577350     0.000000     0.000000     0.000000
    4    -1.000000   120.000000    -0.577350    -0.577350    -0.577350     0.000000     0.000000     0.000000
    5     1.000000   120.000000     0.577350     0.577350     0.577350     0.000000     0.000000     0.000000
    6    -1.000000   120.000000     0.577350     0.577350     0.577350     0.000000     0.000000     0.000000
    7     1.000000    90.000000     0.000000     0.000000    -1.000000     0.000000     0.000000     0.000000
    8    -1.000000    90.000000     0.000000     0.000000    -1.000000     0.000000     0.000000     0.000000
    9     1.000000   180.000000     0.000000     0.707107     0.707107     0.000000     0.000000     0.000000
   10    -1.000000   180.000000     0.000000     0.707107     0.707107     0.000000     0.000000     0.000000
   11     1.000000    90.000000     0.000000     1.000000     0.000000     0.000000     0.000000     0.000000
   12    -1.000000    90.000000     0.000000     1.000000     0.000000     0.000000     0.000000     0.000000
   13     1.000000   180.000000     0.000000     0.000000     1.000000     0.000000     0.000000     0.000000
   14    -1.000000   180.000000     0.000000     0.000000     1.000000     0.000000     0.000000     0.000000
   15     1.000000   120.000000    -0.577350     0.577350     0.577350     0.000000     0.000000     0.000000
   16    -1.000000   120.000000    -0.577350     0.577350     0.577350     0.000000     0.000000     0.000000
   17     1.000000   120.000000    -0.577350     0.577350    -0.577350     0.000000     0.000000     0.000000
   18    -1.000000   120.000000    -0.577350     0.577350    -0.577350     0.000000     0.000000     0.000000
   19     1.000000    90.000000     0.000000     0.000000     1.000000     0.000000     0.000000     0.000000
   20    -1.000000    90.000000     0.000000     0.000000     1.000000     0.000000     0.000000     0.000000
   21     1.000000    90.000000    -1.000000     0.000000     0.000000     0.000000     0.000000     0.000000
   22    -1.000000    90.000000    -1.000000     0.000000     0.000000     0.000000     0.000000     0.000000
   23     1.000000   180.000000     0.707107     0.000000     0.707107     0.000000     0.000000     0.000000
   24    -1.000000   180.000000     0.707107     0.000000     0.707107     0.000000     0.000000     0.000000
   25     1.000000   120.000000     0.577350    -0.577350     0.577350     0.000000     0.000000     0.000000
   26    -1.000000   120.000000     0.577350    -0.577350     0.577350     0.000000     0.000000     0.000000
   27     1.000000   120.000000    -0.577350    -0.577350     0.577350     0.000000     0.000000     0.000000
   28    -1.000000   120.000000    -0.577350    -0.577350     0.577350     0.000000     0.000000     0.000000
   29     1.000000   180.000000     1.000000     0.000000     0.000000     0.000000     0.000000     0.000000
   30    -1.000000   180.000000     1.000000     0.000000     0.000000     0.000000     0.000000     0.000000
   31     1.000000    90.000000     0.000000    -1.000000     0.000000     0.000000     0.000000     0.000000
   32    -1.000000    90.000000     0.000000    -1.000000     0.000000     0.000000     0.000000     0.000000
   33     1.000000   180.000000     0.707107     0.707107     0.000000     0.000000     0.000000     0.000000
   34    -1.000000   180.000000     0.707107     0.707107     0.000000     0.000000     0.000000     0.000000
   35     1.000000    90.000000     1.000000     0.000000     0.000000     0.000000     0.000000     0.000000
   36    -1.000000    90.000000     1.000000     0.000000     0.000000     0.000000     0.000000     0.000000
   37     1.000000   120.000000     0.577350    -0.577350    -0.577350     0.000000     0.000000     0.000000
   38    -1.000000   120.000000     0.577350    -0.577350    -0.577350     0.000000     0.000000     0.000000
   39     1.000000   180.000000     0.000000     1.000000     0.000000     0.000000     0.000000     0.000000
   40    -1.000000   180.000000     0.000000     1.000000     0.000000     0.000000     0.000000     0.000000
   41     1.000000   120.000000     0.577350     0.577350    -0.577350     0.000000     0.000000     0.000000
   42    -1.000000   120.000000     0.577350     0.577350    -0.577350     0.000000     0.000000     0.000000
   43     1.000000   180.000000     0.000000    -0.707107     0.707107     0.000000     0.000000     0.000000
   44    -1.000000   180.000000     0.000000    -0.707107     0.707107     0.000000     0.000000     0.000000
   45     1.000000   180.000000     0.707107    -0.707107     0.000000     0.000000     0.000000     0.000000
   46    -1.000000   180.000000     0.707107    -0.707107     0.000000     0.000000     0.000000     0.000000
   47     1.000000   180.000000     0.707107     0.000000    -0.707107     0.000000     0.000000     0.000000
   48    -1.000000   180.000000     0.707107     0.000000    -0.707107     0.000000     0.000000     0.000000
 
 Subroutine IBZKPT returns following result:
 ===========================================
 
 Found     84 irreducible k-points:
 
 Following reciprocal coordinates:
            Coordinates               Weight
  0.000000  0.000000  0.000000      1.000000
  0.076923  0.000000  0.000000      8.000000
  0.153846  0.000000  0.000000      8.000000
  0.230769  0.000000  0.000000      8.000000
  0.307692  0.000000  0.000000      8.000000
  0.384615  0.000000  0.000000      8.000000
  0.461538  0.000000  0.000000      8.000000
  0.076923  0.076923  0.000000      6.000000
  0.153846  0.076923  0.000000     24.000000
  0.230769  0.076923  0.000000     24.000000
  0.307692  0.076923  0.000000     24.000000
  0.384615  0.076923  0.000000     24.000000
  0.461538  0.076923  0.000000     24.000000
 -0.461538  0.076923  0.000000     24.000000
 -0.384615  0.076923  0.000000     24.000000
 -0.307692  0.076923  0.000000     24.000000
 -0.230769  0.076923  0.000000     24.000000
 -0.153846  0.076923  0.000000     24.000000
 -0.076923  0.076923  0.000000     12.000000
  0.153846  0.153846  0.000000      6.000000
  0.230769  0.153846  0.000000     24.000000
  0.307692  0.153846  0.000000     24.000000
  0.384615  0.153846  0.000000     24.000000
  0.461538  0.153846  0.000000     24.000000
 -0.461538  0.153846  0.000000     24.000000
 -0.384615  0.153846  0.000000     24.000000
 -0.307692  0.153846  0.000000     24.000000
 -0.230769  0.153846  0.000000     24.000000
 -0.153846  0.153846  0.000000     12.000000
  0.230769  0.230769  0.000000      6.000000
  0.307692  0.230769  0.000000     24.000000
  0.384615  0.230769  0.000000     24.000000
  0.461538  0.230769  0.000000     24.000000
 -0.461538  0.230769  0.000000     24.000000
 -0.384615  0.230769  0.000000     24.000000
 -0.307692  0.230769  0.000000     24.000000
 -0.230769  0.230769  0.000000     12.000000
  0.307692  0.307692  0.000000      6.000000
  0.384615  0.307692  0.000000     24.000000
  0.461538  0.307692  0.000000     24.000000
 -0.461538  0.307692  0.000000     24.000000
 -0.384615  0.307692  0.000000     24.000000
 -0.307692  0.307692  0.000000     12.000000
  0.384615  0.384615  0.000000      6.000000
  0.461538  0.384615  0.000000     24.000000
 -0.461538  0.384615  0.000000     24.000000
 -0.384615  0.384615  0.000000     12.000000
  0.461538  0.461538  0.000000      6.000000
 -0.461538  0.461538  0.000000     12.000000
  0.230769  0.153846  0.076923     24.000000
  0.307692  0.153846  0.076923     48.000000
  0.384615  0.153846  0.076923     48.000000
  0.461538  0.153846  0.076923     48.000000
 -0.461538  0.153846  0.076923     48.000000
  0.307692  0.230769  0.076923     24.000000
  0.384615  0.230769  0.076923     48.000000
  0.461538  0.230769  0.076923     48.000000
 -0.461538  0.230769  0.076923     48.000000
 -0.384615  0.230769  0.076923     48.000000
 -0.307692  0.230769  0.076923     48.000000
 -0.230769  0.230769  0.076923     48.000000
 -0.153846  0.230769  0.076923     24.000000
  0.384615  0.307692  0.076923     24.000000
  0.461538  0.307692  0.076923     48.000000
 -0.461538  0.307692  0.076923     48.000000
 -0.384615  0.307692  0.076923     48.000000
 -0.307692  0.307692  0.076923     48.000000
 -0.230769  0.307692  0.076923     24.000000
  0.461538  0.384615  0.076923     24.000000
 -0.461538  0.384615  0.076923     48.000000
 -0.384615  0.384615  0.076923     48.000000
 -0.307692  0.384615  0.076923     24.000000
 -0.461538  0.461538  0.076923     24.000000
 -0.384615  0.461538  0.076923     24.000000
  0.461538  0.307692  0.153846     24.000000
 -0.461538  0.307692  0.153846     48.000000
 -0.384615  0.307692  0.153846     48.000000
 -0.461538  0.384615  0.153846     24.000000
 -0.384615  0.384615  0.153846     48.000000
 -0.307692  0.384615  0.153846     48.000000
 -0.230769  0.384615  0.153846     24.000000
 -0.384615  0.461538  0.153846     24.000000
 -0.307692  0.461538  0.153846     24.000000
 -0.307692  0.461538  0.230769     24.000000
 
 Following cartesian coordinates:
            Coordinates               Weight
  0.000000  0.000000  0.000000      1.000000
 -0.011711  0.011711  0.011711      8.000000
 -0.023421  0.023421  0.023421      8.000000
 -0.035132  0.035132  0.035132      8.000000
 -0.046843  0.046843  0.046843      8.000000
 -0.058553  0.058553  0.058553      8.000000
 -0.070264  0.070264  0.070264      8.000000
  0.000000  0.000000  0.023421      6.000000
 -0.011711  0.011711  0.035132     24.000000
 -0.023421  0.023421  0.046843     24.000000
 -0.035132  0.035132  0.058553     24.000000
 -0.046843  0.046843  0.070264     24.000000
 -0.058553  0.058553  0.081975     24.000000
  0.081975 -0.081975 -0.058553     24.000000
  0.070264 -0.070264 -0.046843     24.000000
  0.058553 -0.058553 -0.035132     24.000000
  0.046843 -0.046843 -0.023421     24.000000
  0.035132 -0.035132 -0.011711     24.000000
  0.023421 -0.023421  0.000000     12.000000
  0.000000  0.000000  0.046843      6.000000
 -0.011711  0.011711  0.058553     24.000000
 -0.023421  0.023421  0.070264     24.000000
 -0.035132  0.035132  0.081975     24.000000
 -0.046843  0.046843  0.093685     24.000000
  0.093685 -0.093685 -0.046843     24.000000
  0.081975 -0.081975 -0.035132     24.000000
  0.070264 -0.070264 -0.023421     24.000000
  0.058553 -0.058553 -0.011711     24.000000
  0.046843 -0.046843  0.000000     12.000000
  0.000000  0.000000  0.070264      6.000000
 -0.011711  0.011711  0.081975     24.000000
 -0.023421  0.023421  0.093685     24.000000
 -0.035132  0.035132  0.105396     24.000000
  0.105396 -0.105396 -0.035132     24.000000
  0.093685 -0.093685 -0.023421     24.000000
  0.081975 -0.081975 -0.011711     24.000000
  0.070264 -0.070264  0.000000     12.000000
  0.000000  0.000000  0.093685      6.000000
 -0.011711  0.011711  0.105396     24.000000
 -0.023421  0.023421  0.117107     24.000000
  0.117107 -0.117107 -0.023421     24.000000
  0.105396 -0.105396 -0.011711     24.000000
  0.093685 -0.093685  0.000000     12.000000
  0.000000  0.000000  0.117107      6.000000
 -0.011711  0.011711  0.128818     24.000000
  0.128818 -0.128818 -0.011711     24.000000
  0.117107 -0.117107  0.000000     12.000000
  0.000000  0.000000  0.140528      6.000000
  0.140528 -0.140528  0.000000     12.000000
  0.000000  0.023421  0.046843     24.000000
 -0.011711  0.035132  0.058553     48.000000
 -0.023421  0.046843  0.070264     48.000000
 -0.035132  0.058553  0.081975     48.000000
  0.105396 -0.081975 -0.058553     48.000000
  0.000000  0.023421  0.070264     24.000000
 -0.011711  0.035132  0.081975     48.000000
 -0.023421  0.046843  0.093685     48.000000
  0.117107 -0.093685 -0.046843     48.000000
  0.105396 -0.081975 -0.035132     48.000000
  0.093685 -0.070264 -0.023421     48.000000
  0.081975 -0.058553 -0.011711     48.000000
  0.070264 -0.046843  0.000000     24.000000
 -0.000000  0.023421  0.093685     24.000000
 -0.011711  0.035132  0.105396     48.000000
  0.128818 -0.105396 -0.035132     48.000000
  0.117107 -0.093685 -0.023421     48.000000
  0.105396 -0.081975 -0.011711     48.000000
  0.093685 -0.070264  0.000000     24.000000
  0.000000  0.023421  0.117107     24.000000
  0.140528 -0.117107 -0.023421     48.000000
  0.128818 -0.105396 -0.011711     48.000000
  0.117107 -0.093685  0.000000     24.000000
  0.152239 -0.128818 -0.011711     24.000000
  0.140528 -0.117107  0.000000     24.000000
  0.000000  0.046843  0.093685     24.000000
  0.140528 -0.093685 -0.046843     48.000000
  0.128818 -0.081975 -0.035132     48.000000
  0.152239 -0.105396 -0.035132     24.000000
  0.140528 -0.093685 -0.023421     48.000000
  0.128818 -0.081975 -0.011711     48.000000
  0.117107 -0.070264  0.000000     24.000000
  0.152239 -0.105396 -0.011711     24.000000
  0.140528 -0.093685  0.000000     24.000000
  0.152239 -0.081975 -0.011711     24.000000
 
 TETIRR: Found    322 inequivalent tetrahedra from    13182
 
 Subroutine IBZKPT_HF returns following result:
 ==============================================
 
 Found   2197 k-points in 1st BZ
 the following   2197 k-points will be used (e.g. in the exchange kernel)
 Following reciprocal coordinates:   # in IRBZ
  0.000000  0.000000  0.000000    0.00045517   1 t-inv F
  0.076923  0.000000  0.000000    0.00045517   2 t-inv F
  0.153846  0.000000  0.000000    0.00045517   3 t-inv F
  0.230769  0.000000  0.000000    0.00045517   4 t-inv F
  0.307692  0.000000  0.000000    0.00045517   5 t-inv F
  0.384615  0.000000  0.000000    0.00045517   6 t-inv F
  0.461538  0.000000  0.000000    0.00045517   7 t-inv F
  0.076923  0.076923  0.000000    0.00045517   8 t-inv F
  0.153846  0.076923  0.000000    0.00045517   9 t-inv F
  0.230769  0.076923  0.000000    0.00045517  10 t-inv F
  0.307692  0.076923  0.000000    0.00045517  11 t-inv F
  0.384615  0.076923  0.000000    0.00045517  12 t-inv F
  0.461538  0.076923  0.000000    0.00045517  13 t-inv F
 -0.461538  0.076923  0.000000    0.00045517  14 t-inv F
 -0.384615  0.076923  0.000000    0.00045517  15 t-inv F
 -0.307692  0.076923  0.000000    0.00045517  16 t-inv F
 -0.230769  0.076923  0.000000    0.00045517  17 t-inv F
 -0.153846  0.076923  0.000000    0.00045517  18 t-inv F
 -0.076923  0.076923  0.000000    0.00045517  19 t-inv F
  0.153846  0.153846  0.000000    0.00045517  20 t-inv F
  0.230769  0.153846  0.000000    0.00045517  21 t-inv F
  0.307692  0.153846  0.000000    0.00045517  22 t-inv F
  0.384615  0.153846  0.000000    0.00045517  23 t-inv F
  0.461538  0.153846  0.000000    0.00045517  24 t-inv F
 -0.461538  0.153846  0.000000    0.00045517  25 t-inv F
 -0.384615  0.153846  0.000000    0.00045517  26 t-inv F
 -0.307692  0.153846  0.000000    0.00045517  27 t-inv F
 -0.230769  0.153846  0.000000    0.00045517  28 t-inv F
 -0.153846  0.153846  0.000000    0.00045517  29 t-inv F
  0.230769  0.230769  0.000000    0.00045517  30 t-inv F
  0.307692  0.230769  0.000000    0.00045517  31 t-inv F
  0.384615  0.230769  0.000000    0.00045517  32 t-inv F
  0.461538  0.230769  0.000000    0.00045517  33 t-inv F
 -0.461538  0.230769  0.000000    0.00045517  34 t-inv F
 -0.384615  0.230769  0.000000    0.00045517  35 t-inv F
 -0.307692  0.230769  0.000000    0.00045517  36 t-inv F
 -0.230769  0.230769  0.000000    0.00045517  37 t-inv F
  0.307692  0.307692  0.000000    0.00045517  38 t-inv F
  0.384615  0.307692  0.000000    0.00045517  39 t-inv F
  0.461538  0.307692  0.000000    0.00045517  40 t-inv F
 -0.461538  0.307692  0.000000    0.00045517  41 t-inv F
 -0.384615  0.307692  0.000000    0.00045517  42 t-inv F
 -0.307692  0.307692  0.000000    0.00045517  43 t-inv F
  0.384615  0.384615  0.000000    0.00045517  44 t-inv F
  0.461538  0.384615  0.000000    0.00045517  45 t-inv F
 -0.461538  0.384615  0.000000    0.00045517  46 t-inv F
 -0.384615  0.384615  0.000000    0.00045517  47 t-inv F
  0.461538  0.461538  0.000000    0.00045517  48 t-inv F
 -0.461538  0.461538  0.000000    0.00045517  49 t-inv F
  0.230769  0.153846  0.076923    0.00045517  50 t-inv F
  0.307692  0.153846  0.076923    0.00045517  51 t-inv F
  0.384615  0.153846  0.076923    0.00045517  52 t-inv F
  0.461538  0.153846  0.076923    0.00045517  53 t-inv F
 -0.461538  0.153846  0.076923    0.00045517  54 t-inv F
  0.307692  0.230769  0.076923    0.00045517  55 t-inv F
  0.384615  0.230769  0.076923    0.00045517  56 t-inv F
  0.461538  0.230769  0.076923    0.00045517  57 t-inv F
 -0.461538  0.230769  0.076923    0.00045517  58 t-inv F
 -0.384615  0.230769  0.076923    0.00045517  59 t-inv F
 -0.307692  0.230769  0.076923    0.00045517  60 t-inv F
 -0.230769  0.230769  0.076923    0.00045517  61 t-inv F
 -0.153846  0.230769  0.076923    0.00045517  62 t-inv F
  0.384615  0.307692  0.076923    0.00045517  63 t-inv F
  0.461538  0.307692  0.076923    0.00045517  64 t-inv F
 -0.461538  0.307692  0.076923    0.00045517  65 t-inv F
 -0.384615  0.307692  0.076923    0.00045517  66 t-inv F
 -0.307692  0.307692  0.076923    0.00045517  67 t-inv F
 -0.230769  0.307692  0.076923    0.00045517  68 t-inv F
  0.461538  0.384615  0.076923    0.00045517  69 t-inv F
 -0.461538  0.384615  0.076923    0.00045517  70 t-inv F
 -0.384615  0.384615  0.076923    0.00045517  71 t-inv F
 -0.307692  0.384615  0.076923    0.00045517  72 t-inv F
 -0.461538  0.461538  0.076923    0.00045517  73 t-inv F
 -0.384615  0.461538  0.076923    0.00045517  74 t-inv F
  0.461538  0.307692  0.153846    0.00045517  75 t-inv F
 -0.461538  0.307692  0.153846    0.00045517  76 t-inv F
 -0.384615  0.307692  0.153846    0.00045517  77 t-inv F
 -0.461538  0.384615  0.153846    0.00045517  78 t-inv F
 -0.384615  0.384615  0.153846    0.00045517  79 t-inv F
 -0.307692  0.384615  0.153846    0.00045517  80 t-inv F
 -0.230769  0.384615  0.153846    0.00045517  81 t-inv F
 -0.384615  0.461538  0.153846    0.00045517  82 t-inv F
 -0.307692  0.461538  0.153846    0.00045517  83 t-inv F
 -0.307692  0.461538  0.230769    0.00045517  84 t-inv F
 -0.076923 -0.000000 -0.000000    0.00045517   2 t-inv F
  0.000000  0.076923  0.000000    0.00045517   2 t-inv F
 -0.000000 -0.076923 -0.000000    0.00045517   2 t-inv F
  0.000000  0.000000  0.076923    0.00045517   2 t-inv F
 -0.000000 -0.000000 -0.076923    0.00045517   2 t-inv F
  0.076923  0.076923  0.076923    0.00045517   2 t-inv F
 -0.076923 -0.076923 -0.076923    0.00045517   2 t-inv F
 -0.153846 -0.000000 -0.000000    0.00045517   3 t-inv F
  0.000000  0.153846  0.000000    0.00045517   3 t-inv F
 -0.000000 -0.153846 -0.000000    0.00045517   3 t-inv F
  0.000000  0.000000  0.153846    0.00045517   3 t-inv F
 -0.000000 -0.000000 -0.153846    0.00045517   3 t-inv F
  0.153846  0.153846  0.153846    0.00045517   3 t-inv F
 -0.153846 -0.153846 -0.153846    0.00045517   3 t-inv F
 -0.230769 -0.000000 -0.000000    0.00045517   4 t-inv F
  0.000000  0.230769  0.000000    0.00045517   4 t-inv F
 -0.000000 -0.230769 -0.000000    0.00045517   4 t-inv F
  0.000000  0.000000  0.230769    0.00045517   4 t-inv F
 -0.000000 -0.000000 -0.230769    0.00045517   4 t-inv F
  0.230769  0.230769  0.230769    0.00045517   4 t-inv F
 -0.230769 -0.230769 -0.230769    0.00045517   4 t-inv F
 -0.307692 -0.000000 -0.000000    0.00045517   5 t-inv F
  0.000000  0.307692  0.000000    0.00045517   5 t-inv F
 -0.000000 -0.307692 -0.000000    0.00045517   5 t-inv F
  0.000000  0.000000  0.307692    0.00045517   5 t-inv F
 -0.000000 -0.000000 -0.307692    0.00045517   5 t-inv F
  0.307692  0.307692  0.307692    0.00045517   5 t-inv F
 -0.307692 -0.307692 -0.307692    0.00045517   5 t-inv F
 -0.384615 -0.000000 -0.000000    0.00045517   6 t-inv F
  0.000000  0.384615  0.000000    0.00045517   6 t-inv F
 -0.000000 -0.384615 -0.000000    0.00045517   6 t-inv F
  0.000000  0.000000  0.384615    0.00045517   6 t-inv F
 -0.000000 -0.000000 -0.384615    0.00045517   6 t-inv F
  0.384615  0.384615  0.384615    0.00045517   6 t-inv F
 -0.384615 -0.384615 -0.384615    0.00045517   6 t-inv F
 -0.461538 -0.000000 -0.000000    0.00045517   7 t-inv F
  0.000000  0.461538  0.000000    0.00045517   7 t-inv F
 -0.000000 -0.461538 -0.000000    0.00045517   7 t-inv F
  0.000000  0.000000  0.461538    0.00045517   7 t-inv F
 -0.000000 -0.000000 -0.461538    0.00045517   7 t-inv F
  0.461538  0.461538  0.461538    0.00045517   7 t-inv F
 -0.461538 -0.461538 -0.461538    0.00045517   7 t-inv F
 -0.076923 -0.076923 -0.000000    0.00045517   8 t-inv F
  0.000000  0.076923  0.076923    0.00045517   8 t-inv F
 -0.000000 -0.076923 -0.076923    0.00045517   8 t-inv F
  0.076923  0.000000  0.076923    0.00045517   8 t-inv F
 -0.076923 -0.000000 -0.076923    0.00045517   8 t-inv F
 -0.153846 -0.076923 -0.000000    0.00045517   9 t-inv F
  0.000000  0.153846  0.076923    0.00045517   9 t-inv F
 -0.000000 -0.153846 -0.076923    0.00045517   9 t-inv F
  0.076923  0.000000  0.153846    0.00045517   9 t-inv F
 -0.076923 -0.000000 -0.153846    0.00045517   9 t-inv F
  0.076923  0.076923 -0.076923    0.00045517   9 t-inv F
 -0.076923 -0.076923  0.076923    0.00045517   9 t-inv F
  0.153846  0.076923  0.153846    0.00045517   9 t-inv F
 -0.153846 -0.076923 -0.153846    0.00045517   9 t-inv F
  0.076923  0.153846 -0.000000    0.00045517   9 t-inv F
 -0.076923 -0.153846  0.000000    0.00045517   9 t-inv F
  0.076923 -0.076923 -0.076923    0.00045517   9 t-inv F
 -0.076923  0.076923  0.076923    0.00045517   9 t-inv F
  0.153846  0.153846  0.076923    0.00045517   9 t-inv F
 -0.153846 -0.153846 -0.076923    0.00045517   9 t-inv F
 -0.000000  0.076923  0.153846    0.00045517   9 t-inv F
  0.000000 -0.076923 -0.153846    0.00045517   9 t-inv F
 -0.076923  0.076923 -0.076923    0.00045517   9 t-inv F
  0.076923 -0.076923  0.076923    0.00045517   9 t-inv F
  0.076923  0.153846  0.153846    0.00045517   9 t-inv F
 -0.076923 -0.153846 -0.153846    0.00045517   9 t-inv F
  0.153846 -0.000000  0.076923    0.00045517   9 t-inv F
 -0.153846  0.000000 -0.076923    0.00045517   9 t-inv F
 -0.230769 -0.076923 -0.000000    0.00045517  10 t-inv F
  0.000000  0.230769  0.076923    0.00045517  10 t-inv F
 -0.000000 -0.230769 -0.076923    0.00045517  10 t-inv F
  0.076923  0.000000  0.230769    0.00045517  10 t-inv F
 -0.076923 -0.000000 -0.230769    0.00045517  10 t-inv F
  0.076923  0.076923 -0.153846    0.00045517  10 t-inv F
 -0.076923 -0.076923  0.153846    0.00045517  10 t-inv F
  0.230769  0.153846  0.230769    0.00045517  10 t-inv F
 -0.230769 -0.153846 -0.230769    0.00045517  10 t-inv F
  0.076923  0.230769 -0.000000    0.00045517  10 t-inv F
 -0.076923 -0.230769  0.000000    0.00045517  10 t-inv F
  0.153846 -0.076923 -0.076923    0.00045517  10 t-inv F
 -0.153846  0.076923  0.076923    0.00045517  10 t-inv F
  0.230769  0.230769  0.153846    0.00045517  10 t-inv F
 -0.230769 -0.230769 -0.153846    0.00045517  10 t-inv F
 -0.000000  0.076923  0.230769    0.00045517  10 t-inv F
  0.000000 -0.076923 -0.230769    0.00045517  10 t-inv F
 -0.076923  0.153846 -0.076923    0.00045517  10 t-inv F
  0.076923 -0.153846  0.076923    0.00045517  10 t-inv F
  0.153846  0.230769  0.230769    0.00045517  10 t-inv F
 -0.153846 -0.230769 -0.230769    0.00045517  10 t-inv F
  0.230769 -0.000000  0.076923    0.00045517  10 t-inv F
 -0.230769  0.000000 -0.076923    0.00045517  10 t-inv F
 -0.307692 -0.076923 -0.000000    0.00045517  11 t-inv F
  0.000000  0.307692  0.076923    0.00045517  11 t-inv F
 -0.000000 -0.307692 -0.076923    0.00045517  11 t-inv F
  0.076923  0.000000  0.307692    0.00045517  11 t-inv F
 -0.076923 -0.000000 -0.307692    0.00045517  11 t-inv F
  0.076923  0.076923 -0.230769    0.00045517  11 t-inv F
 -0.076923 -0.076923  0.230769    0.00045517  11 t-inv F
  0.307692  0.230769  0.307692    0.00045517  11 t-inv F
 -0.307692 -0.230769 -0.307692    0.00045517  11 t-inv F
  0.076923  0.307692 -0.000000    0.00045517  11 t-inv F
 -0.076923 -0.307692  0.000000    0.00045517  11 t-inv F
  0.230769 -0.076923 -0.076923    0.00045517  11 t-inv F
 -0.230769  0.076923  0.076923    0.00045517  11 t-inv F
  0.307692  0.307692  0.230769    0.00045517  11 t-inv F
 -0.307692 -0.307692 -0.230769    0.00045517  11 t-inv F
 -0.000000  0.076923  0.307692    0.00045517  11 t-inv F
  0.000000 -0.076923 -0.307692    0.00045517  11 t-inv F
 -0.076923  0.230769 -0.076923    0.00045517  11 t-inv F
  0.076923 -0.230769  0.076923    0.00045517  11 t-inv F
  0.230769  0.307692  0.307692    0.00045517  11 t-inv F
 -0.230769 -0.307692 -0.307692    0.00045517  11 t-inv F
  0.307692 -0.000000  0.076923    0.00045517  11 t-inv F
 -0.307692  0.000000 -0.076923    0.00045517  11 t-inv F
 -0.384615 -0.076923 -0.000000    0.00045517  12 t-inv F
  0.000000  0.384615  0.076923    0.00045517  12 t-inv F
 -0.000000 -0.384615 -0.076923    0.00045517  12 t-inv F
  0.076923  0.000000  0.384615    0.00045517  12 t-inv F
 -0.076923 -0.000000 -0.384615    0.00045517  12 t-inv F
  0.076923  0.076923 -0.307692    0.00045517  12 t-inv F
 -0.076923 -0.076923  0.307692    0.00045517  12 t-inv F
  0.384615  0.307692  0.384615    0.00045517  12 t-inv F
 -0.384615 -0.307692 -0.384615    0.00045517  12 t-inv F
  0.076923  0.384615 -0.000000    0.00045517  12 t-inv F
 -0.076923 -0.384615  0.000000    0.00045517  12 t-inv F
  0.307692 -0.076923 -0.076923    0.00045517  12 t-inv F
 -0.307692  0.076923  0.076923    0.00045517  12 t-inv F
  0.384615  0.384615  0.307692    0.00045517  12 t-inv F
 -0.384615 -0.384615 -0.307692    0.00045517  12 t-inv F
 -0.000000  0.076923  0.384615    0.00045517  12 t-inv F
  0.000000 -0.076923 -0.384615    0.00045517  12 t-inv F
 -0.076923  0.307692 -0.076923    0.00045517  12 t-inv F
  0.076923 -0.307692  0.076923    0.00045517  12 t-inv F
  0.307692  0.384615  0.384615    0.00045517  12 t-inv F
 -0.307692 -0.384615 -0.384615    0.00045517  12 t-inv F
  0.384615 -0.000000  0.076923    0.00045517  12 t-inv F
 -0.384615  0.000000 -0.076923    0.00045517  12 t-inv F
 -0.461538 -0.076923 -0.000000    0.00045517  13 t-inv F
  0.000000  0.461538  0.076923    0.00045517  13 t-inv F
 -0.000000 -0.461538 -0.076923    0.00045517  13 t-inv F
  0.076923  0.000000  0.461538    0.00045517  13 t-inv F
 -0.076923 -0.000000 -0.461538    0.00045517  13 t-inv F
  0.076923  0.076923 -0.384615    0.00045517  13 t-inv F
 -0.076923 -0.076923  0.384615    0.00045517  13 t-inv F
  0.461538  0.384615  0.461538    0.00045517  13 t-inv F
 -0.461538 -0.384615 -0.461538    0.00045517  13 t-inv F
  0.076923  0.461538 -0.000000    0.00045517  13 t-inv F
 -0.076923 -0.461538  0.000000    0.00045517  13 t-inv F
  0.384615 -0.076923 -0.076923    0.00045517  13 t-inv F
 -0.384615  0.076923  0.076923    0.00045517  13 t-inv F
  0.461538  0.461538  0.384615    0.00045517  13 t-inv F
 -0.461538 -0.461538 -0.384615    0.00045517  13 t-inv F
 -0.000000  0.076923  0.461538    0.00045517  13 t-inv F
  0.000000 -0.076923 -0.461538    0.00045517  13 t-inv F
 -0.076923  0.384615 -0.076923    0.00045517  13 t-inv F
  0.076923 -0.384615  0.076923    0.00045517  13 t-inv F
  0.384615  0.461538  0.461538    0.00045517  13 t-inv F
 -0.384615 -0.461538 -0.461538    0.00045517  13 t-inv F
  0.461538 -0.000000  0.076923    0.00045517  13 t-inv F
 -0.461538  0.000000 -0.076923    0.00045517  13 t-inv F
  0.461538 -0.076923 -0.000000    0.00045517  14 t-inv F
  0.000000 -0.461538  0.076923    0.00045517  14 t-inv F
 -0.000000  0.461538 -0.076923    0.00045517  14 t-inv F
  0.076923  0.000000 -0.461538    0.00045517  14 t-inv F
 -0.076923 -0.000000  0.461538    0.00045517  14 t-inv F
  0.076923  0.076923  0.538462    0.00045517  14 t-inv F
 -0.076923 -0.076923 -0.538462    0.00045517  14 t-inv F
 -0.461538 -0.538462 -0.461538    0.00045517  14 t-inv F
  0.461538  0.538462  0.461538    0.00045517  14 t-inv F
  0.076923 -0.461538 -0.000000    0.00045517  14 t-inv F
 -0.076923  0.461538  0.000000    0.00045517  14 t-inv F
 -0.538462 -0.076923 -0.076923    0.00045517  14 t-inv F
  0.538462  0.076923  0.076923    0.00045517  14 t-inv F
 -0.461538 -0.461538 -0.538462    0.00045517  14 t-inv F
  0.461538  0.461538  0.538462    0.00045517  14 t-inv F
 -0.000000  0.076923 -0.461538    0.00045517  14 t-inv F
  0.000000 -0.076923  0.461538    0.00045517  14 t-inv F
 -0.076923 -0.538462 -0.076923    0.00045517  14 t-inv F
  0.076923  0.538462  0.076923    0.00045517  14 t-inv F
 -0.538462 -0.461538 -0.461538    0.00045517  14 t-inv F
  0.538462  0.461538  0.461538    0.00045517  14 t-inv F
 -0.461538 -0.000000  0.076923    0.00045517  14 t-inv F
  0.461538  0.000000 -0.076923    0.00045517  14 t-inv F
  0.384615 -0.076923 -0.000000    0.00045517  15 t-inv F
  0.000000 -0.384615  0.076923    0.00045517  15 t-inv F
 -0.000000  0.384615 -0.076923    0.00045517  15 t-inv F
  0.076923  0.000000 -0.384615    0.00045517  15 t-inv F
 -0.076923 -0.000000  0.384615    0.00045517  15 t-inv F
  0.076923  0.076923  0.461538    0.00045517  15 t-inv F
 -0.076923 -0.076923 -0.461538    0.00045517  15 t-inv F
 -0.384615 -0.461538 -0.384615    0.00045517  15 t-inv F
  0.384615  0.461538  0.384615    0.00045517  15 t-inv F
  0.076923 -0.384615 -0.000000    0.00045517  15 t-inv F
 -0.076923  0.384615  0.000000    0.00045517  15 t-inv F
 -0.461538 -0.076923 -0.076923    0.00045517  15 t-inv F
  0.461538  0.076923  0.076923    0.00045517  15 t-inv F
 -0.384615 -0.384615 -0.461538    0.00045517  15 t-inv F
  0.384615  0.384615  0.461538    0.00045517  15 t-inv F
 -0.000000  0.076923 -0.384615    0.00045517  15 t-inv F
  0.000000 -0.076923  0.384615    0.00045517  15 t-inv F
 -0.076923 -0.461538 -0.076923    0.00045517  15 t-inv F
  0.076923  0.461538  0.076923    0.00045517  15 t-inv F
 -0.461538 -0.384615 -0.384615    0.00045517  15 t-inv F
  0.461538  0.384615  0.384615    0.00045517  15 t-inv F
 -0.384615 -0.000000  0.076923    0.00045517  15 t-inv F
  0.384615  0.000000 -0.076923    0.00045517  15 t-inv F
  0.307692 -0.076923 -0.000000    0.00045517  16 t-inv F
  0.000000 -0.307692  0.076923    0.00045517  16 t-inv F
 -0.000000  0.307692 -0.076923    0.00045517  16 t-inv F
  0.076923  0.000000 -0.307692    0.00045517  16 t-inv F
 -0.076923 -0.000000  0.307692    0.00045517  16 t-inv F
  0.076923  0.076923  0.384615    0.00045517  16 t-inv F
 -0.076923 -0.076923 -0.384615    0.00045517  16 t-inv F
 -0.307692 -0.384615 -0.307692    0.00045517  16 t-inv F
  0.307692  0.384615  0.307692    0.00045517  16 t-inv F
  0.076923 -0.307692 -0.000000    0.00045517  16 t-inv F
 -0.076923  0.307692  0.000000    0.00045517  16 t-inv F
 -0.384615 -0.076923 -0.076923    0.00045517  16 t-inv F
  0.384615  0.076923  0.076923    0.00045517  16 t-inv F
 -0.307692 -0.307692 -0.384615    0.00045517  16 t-inv F
  0.307692  0.307692  0.384615    0.00045517  16 t-inv F
 -0.000000  0.076923 -0.307692    0.00045517  16 t-inv F
  0.000000 -0.076923  0.307692    0.00045517  16 t-inv F
 -0.076923 -0.384615 -0.076923    0.00045517  16 t-inv F
  0.076923  0.384615  0.076923    0.00045517  16 t-inv F
 -0.384615 -0.307692 -0.307692    0.00045517  16 t-inv F
  0.384615  0.307692  0.307692    0.00045517  16 t-inv F
 -0.307692 -0.000000  0.076923    0.00045517  16 t-inv F
  0.307692  0.000000 -0.076923    0.00045517  16 t-inv F
  0.230769 -0.076923 -0.000000    0.00045517  17 t-inv F
  0.000000 -0.230769  0.076923    0.00045517  17 t-inv F
 -0.000000  0.230769 -0.076923    0.00045517  17 t-inv F
  0.076923  0.000000 -0.230769    0.00045517  17 t-inv F
 -0.076923 -0.000000  0.230769    0.00045517  17 t-inv F
  0.076923  0.076923  0.307692    0.00045517  17 t-inv F
 -0.076923 -0.076923 -0.307692    0.00045517  17 t-inv F
 -0.230769 -0.307692 -0.230769    0.00045517  17 t-inv F
  0.230769  0.307692  0.230769    0.00045517  17 t-inv F
  0.076923 -0.230769 -0.000000    0.00045517  17 t-inv F
 -0.076923  0.230769  0.000000    0.00045517  17 t-inv F
 -0.307692 -0.076923 -0.076923    0.00045517  17 t-inv F
  0.307692  0.076923  0.076923    0.00045517  17 t-inv F
 -0.230769 -0.230769 -0.307692    0.00045517  17 t-inv F
  0.230769  0.230769  0.307692    0.00045517  17 t-inv F
 -0.000000  0.076923 -0.230769    0.00045517  17 t-inv F
  0.000000 -0.076923  0.230769    0.00045517  17 t-inv F
 -0.076923 -0.307692 -0.076923    0.00045517  17 t-inv F
  0.076923  0.307692  0.076923    0.00045517  17 t-inv F
 -0.307692 -0.230769 -0.230769    0.00045517  17 t-inv F
  0.307692  0.230769  0.230769    0.00045517  17 t-inv F
 -0.230769 -0.000000  0.076923    0.00045517  17 t-inv F
  0.230769  0.000000 -0.076923    0.00045517  17 t-inv F
  0.153846 -0.076923 -0.000000    0.00045517  18 t-inv F
  0.000000 -0.153846  0.076923    0.00045517  18 t-inv F
 -0.000000  0.153846 -0.076923    0.00045517  18 t-inv F
  0.076923  0.000000 -0.153846    0.00045517  18 t-inv F
 -0.076923 -0.000000  0.153846    0.00045517  18 t-inv F
  0.076923  0.076923  0.230769    0.00045517  18 t-inv F
 -0.076923 -0.076923 -0.230769    0.00045517  18 t-inv F
 -0.153846 -0.230769 -0.153846    0.00045517  18 t-inv F
  0.153846  0.230769  0.153846    0.00045517  18 t-inv F
  0.076923 -0.153846 -0.000000    0.00045517  18 t-inv F
 -0.076923  0.153846  0.000000    0.00045517  18 t-inv F
 -0.230769 -0.076923 -0.076923    0.00045517  18 t-inv F
  0.230769  0.076923  0.076923    0.00045517  18 t-inv F
 -0.153846 -0.153846 -0.230769    0.00045517  18 t-inv F
  0.153846  0.153846  0.230769    0.00045517  18 t-inv F
 -0.000000  0.076923 -0.153846    0.00045517  18 t-inv F
  0.000000 -0.076923  0.153846    0.00045517  18 t-inv F
 -0.076923 -0.230769 -0.076923    0.00045517  18 t-inv F
  0.076923  0.230769  0.076923    0.00045517  18 t-inv F
 -0.230769 -0.153846 -0.153846    0.00045517  18 t-inv F
  0.230769  0.153846  0.153846    0.00045517  18 t-inv F
 -0.153846 -0.000000  0.076923    0.00045517  18 t-inv F
  0.153846  0.000000 -0.076923    0.00045517  18 t-inv F
  0.076923 -0.076923 -0.000000    0.00045517  19 t-inv F
  0.000000 -0.076923  0.076923    0.00045517  19 t-inv F
 -0.000000  0.076923 -0.076923    0.00045517  19 t-inv F
  0.076923  0.000000 -0.076923    0.00045517  19 t-inv F
 -0.076923 -0.000000  0.076923    0.00045517  19 t-inv F
  0.076923  0.076923  0.153846    0.00045517  19 t-inv F
 -0.076923 -0.076923 -0.153846    0.00045517  19 t-inv F
 -0.076923 -0.153846 -0.076923    0.00045517  19 t-inv F
  0.076923  0.153846  0.076923    0.00045517  19 t-inv F
 -0.153846 -0.076923 -0.076923    0.00045517  19 t-inv F
  0.153846  0.076923  0.076923    0.00045517  19 t-inv F
 -0.153846 -0.153846 -0.000000    0.00045517  20 t-inv F
  0.000000  0.153846  0.153846    0.00045517  20 t-inv F
 -0.000000 -0.153846 -0.153846    0.00045517  20 t-inv F
  0.153846  0.000000  0.153846    0.00045517  20 t-inv F
 -0.153846 -0.000000 -0.153846    0.00045517  20 t-inv F
 -0.230769 -0.153846 -0.000000    0.00045517  21 t-inv F
  0.000000  0.230769  0.153846    0.00045517  21 t-inv F
 -0.000000 -0.230769 -0.153846    0.00045517  21 t-inv F
  0.153846  0.000000  0.230769    0.00045517  21 t-inv F
 -0.153846 -0.000000 -0.230769    0.00045517  21 t-inv F
  0.153846  0.153846 -0.076923    0.00045517  21 t-inv F
 -0.153846 -0.153846  0.076923    0.00045517  21 t-inv F
  0.230769  0.076923  0.230769    0.00045517  21 t-inv F
 -0.230769 -0.076923 -0.230769    0.00045517  21 t-inv F
  0.153846  0.230769 -0.000000    0.00045517  21 t-inv F
 -0.153846 -0.230769  0.000000    0.00045517  21 t-inv F
  0.076923 -0.153846 -0.153846    0.00045517  21 t-inv F
 -0.076923  0.153846  0.153846    0.00045517  21 t-inv F
  0.230769  0.230769  0.076923    0.00045517  21 t-inv F
 -0.230769 -0.230769 -0.076923    0.00045517  21 t-inv F
 -0.000000  0.153846  0.230769    0.00045517  21 t-inv F
  0.000000 -0.153846 -0.230769    0.00045517  21 t-inv F
 -0.153846  0.076923 -0.153846    0.00045517  21 t-inv F
  0.153846 -0.076923  0.153846    0.00045517  21 t-inv F
  0.076923  0.230769  0.230769    0.00045517  21 t-inv F
 -0.076923 -0.230769 -0.230769    0.00045517  21 t-inv F
  0.230769 -0.000000  0.153846    0.00045517  21 t-inv F
 -0.230769  0.000000 -0.153846    0.00045517  21 t-inv F
 -0.307692 -0.153846 -0.000000    0.00045517  22 t-inv F
  0.000000  0.307692  0.153846    0.00045517  22 t-inv F
 -0.000000 -0.307692 -0.153846    0.00045517  22 t-inv F
  0.153846  0.000000  0.307692    0.00045517  22 t-inv F
 -0.153846 -0.000000 -0.307692    0.00045517  22 t-inv F
  0.153846  0.153846 -0.153846    0.00045517  22 t-inv F
 -0.153846 -0.153846  0.153846    0.00045517  22 t-inv F
  0.307692  0.153846  0.307692    0.00045517  22 t-inv F
 -0.307692 -0.153846 -0.307692    0.00045517  22 t-inv F
  0.153846  0.307692 -0.000000    0.00045517  22 t-inv F
 -0.153846 -0.307692  0.000000    0.00045517  22 t-inv F
  0.153846 -0.153846 -0.153846    0.00045517  22 t-inv F
 -0.153846  0.153846  0.153846    0.00045517  22 t-inv F
  0.307692  0.307692  0.153846    0.00045517  22 t-inv F
 -0.307692 -0.307692 -0.153846    0.00045517  22 t-inv F
 -0.000000  0.153846  0.307692    0.00045517  22 t-inv F
  0.000000 -0.153846 -0.307692    0.00045517  22 t-inv F
 -0.153846  0.153846 -0.153846    0.00045517  22 t-inv F
  0.153846 -0.153846  0.153846    0.00045517  22 t-inv F
  0.153846  0.307692  0.307692    0.00045517  22 t-inv F
 -0.153846 -0.307692 -0.307692    0.00045517  22 t-inv F
  0.307692 -0.000000  0.153846    0.00045517  22 t-inv F
 -0.307692  0.000000 -0.153846    0.00045517  22 t-inv F
 -0.384615 -0.153846 -0.000000    0.00045517  23 t-inv F
  0.000000  0.384615  0.153846    0.00045517  23 t-inv F
 -0.000000 -0.384615 -0.153846    0.00045517  23 t-inv F
  0.153846  0.000000  0.384615    0.00045517  23 t-inv F
 -0.153846 -0.000000 -0.384615    0.00045517  23 t-inv F
  0.153846  0.153846 -0.230769    0.00045517  23 t-inv F
 -0.153846 -0.153846  0.230769    0.00045517  23 t-inv F
  0.384615  0.230769  0.384615    0.00045517  23 t-inv F
 -0.384615 -0.230769 -0.384615    0.00045517  23 t-inv F
  0.153846  0.384615 -0.000000    0.00045517  23 t-inv F
 -0.153846 -0.384615  0.000000    0.00045517  23 t-inv F
  0.230769 -0.153846 -0.153846    0.00045517  23 t-inv F
 -0.230769  0.153846  0.153846    0.00045517  23 t-inv F
  0.384615  0.384615  0.230769    0.00045517  23 t-inv F
 -0.384615 -0.384615 -0.230769    0.00045517  23 t-inv F
 -0.000000  0.153846  0.384615    0.00045517  23 t-inv F
  0.000000 -0.153846 -0.384615    0.00045517  23 t-inv F
 -0.153846  0.230769 -0.153846    0.00045517  23 t-inv F
  0.153846 -0.230769  0.153846    0.00045517  23 t-inv F
  0.230769  0.384615  0.384615    0.00045517  23 t-inv F
 -0.230769 -0.384615 -0.384615    0.00045517  23 t-inv F
  0.384615 -0.000000  0.153846    0.00045517  23 t-inv F
 -0.384615  0.000000 -0.153846    0.00045517  23 t-inv F
 -0.461538 -0.153846 -0.000000    0.00045517  24 t-inv F
  0.000000  0.461538  0.153846    0.00045517  24 t-inv F
 -0.000000 -0.461538 -0.153846    0.00045517  24 t-inv F
  0.153846  0.000000  0.461538    0.00045517  24 t-inv F
 -0.153846 -0.000000 -0.461538    0.00045517  24 t-inv F
  0.153846  0.153846 -0.307692    0.00045517  24 t-inv F
 -0.153846 -0.153846  0.307692    0.00045517  24 t-inv F
  0.461538  0.307692  0.461538    0.00045517  24 t-inv F
 -0.461538 -0.307692 -0.461538    0.00045517  24 t-inv F
  0.153846  0.461538 -0.000000    0.00045517  24 t-inv F
 -0.153846 -0.461538  0.000000    0.00045517  24 t-inv F
  0.307692 -0.153846 -0.153846    0.00045517  24 t-inv F
 -0.307692  0.153846  0.153846    0.00045517  24 t-inv F
  0.461538  0.461538  0.307692    0.00045517  24 t-inv F
 -0.461538 -0.461538 -0.307692    0.00045517  24 t-inv F
 -0.000000  0.153846  0.461538    0.00045517  24 t-inv F
  0.000000 -0.153846 -0.461538    0.00045517  24 t-inv F
 -0.153846  0.307692 -0.153846    0.00045517  24 t-inv F
  0.153846 -0.307692  0.153846    0.00045517  24 t-inv F
  0.307692  0.461538  0.461538    0.00045517  24 t-inv F
 -0.307692 -0.461538 -0.461538    0.00045517  24 t-inv F
  0.461538 -0.000000  0.153846    0.00045517  24 t-inv F
 -0.461538  0.000000 -0.153846    0.00045517  24 t-inv F
  0.461538 -0.153846 -0.000000    0.00045517  25 t-inv F
  0.000000 -0.461538  0.153846    0.00045517  25 t-inv F
 -0.000000  0.461538 -0.153846    0.00045517  25 t-inv F
  0.153846  0.000000 -0.461538    0.00045517  25 t-inv F
 -0.153846 -0.000000  0.461538    0.00045517  25 t-inv F
  0.153846  0.153846  0.615385    0.00045517  25 t-inv F
 -0.153846 -0.153846 -0.615385    0.00045517  25 t-inv F
 -0.461538 -0.615385 -0.461538    0.00045517  25 t-inv F
  0.461538  0.615385  0.461538    0.00045517  25 t-inv F
  0.153846 -0.461538 -0.000000    0.00045517  25 t-inv F
 -0.153846  0.461538  0.000000    0.00045517  25 t-inv F
 -0.615385 -0.153846 -0.153846    0.00045517  25 t-inv F
  0.615385  0.153846  0.153846    0.00045517  25 t-inv F
 -0.461538 -0.461538 -0.615385    0.00045517  25 t-inv F
  0.461538  0.461538  0.615385    0.00045517  25 t-inv F
 -0.000000  0.153846 -0.461538    0.00045517  25 t-inv F
  0.000000 -0.153846  0.461538    0.00045517  25 t-inv F
 -0.153846 -0.615385 -0.153846    0.00045517  25 t-inv F
  0.153846  0.615385  0.153846    0.00045517  25 t-inv F
 -0.615385 -0.461538 -0.461538    0.00045517  25 t-inv F
  0.615385  0.461538  0.461538    0.00045517  25 t-inv F
 -0.461538 -0.000000  0.153846    0.00045517  25 t-inv F
  0.461538  0.000000 -0.153846    0.00045517  25 t-inv F
  0.384615 -0.153846 -0.000000    0.00045517  26 t-inv F
  0.000000 -0.384615  0.153846    0.00045517  26 t-inv F
 -0.000000  0.384615 -0.153846    0.00045517  26 t-inv F
  0.153846  0.000000 -0.384615    0.00045517  26 t-inv F
 -0.153846 -0.000000  0.384615    0.00045517  26 t-inv F
  0.153846  0.153846  0.538462    0.00045517  26 t-inv F
 -0.153846 -0.153846 -0.538462    0.00045517  26 t-inv F
 -0.384615 -0.538462 -0.384615    0.00045517  26 t-inv F
  0.384615  0.538462  0.384615    0.00045517  26 t-inv F
  0.153846 -0.384615 -0.000000    0.00045517  26 t-inv F
 -0.153846  0.384615  0.000000    0.00045517  26 t-inv F
 -0.538462 -0.153846 -0.153846    0.00045517  26 t-inv F
  0.538462  0.153846  0.153846    0.00045517  26 t-inv F
 -0.384615 -0.384615 -0.538462    0.00045517  26 t-inv F
  0.384615  0.384615  0.538462    0.00045517  26 t-inv F
 -0.000000  0.153846 -0.384615    0.00045517  26 t-inv F
  0.000000 -0.153846  0.384615    0.00045517  26 t-inv F
 -0.153846 -0.538462 -0.153846    0.00045517  26 t-inv F
  0.153846  0.538462  0.153846    0.00045517  26 t-inv F
 -0.538462 -0.384615 -0.384615    0.00045517  26 t-inv F
  0.538462  0.384615  0.384615    0.00045517  26 t-inv F
 -0.384615 -0.000000  0.153846    0.00045517  26 t-inv F
  0.384615  0.000000 -0.153846    0.00045517  26 t-inv F
  0.307692 -0.153846 -0.000000    0.00045517  27 t-inv F
  0.000000 -0.307692  0.153846    0.00045517  27 t-inv F
 -0.000000  0.307692 -0.153846    0.00045517  27 t-inv F
  0.153846  0.000000 -0.307692    0.00045517  27 t-inv F
 -0.153846 -0.000000  0.307692    0.00045517  27 t-inv F
  0.153846  0.153846  0.461538    0.00045517  27 t-inv F
 -0.153846 -0.153846 -0.461538    0.00045517  27 t-inv F
 -0.307692 -0.461538 -0.307692    0.00045517  27 t-inv F
  0.307692  0.461538  0.307692    0.00045517  27 t-inv F
  0.153846 -0.307692 -0.000000    0.00045517  27 t-inv F
 -0.153846  0.307692  0.000000    0.00045517  27 t-inv F
 -0.461538 -0.153846 -0.153846    0.00045517  27 t-inv F
  0.461538  0.153846  0.153846    0.00045517  27 t-inv F
 -0.307692 -0.307692 -0.461538    0.00045517  27 t-inv F
  0.307692  0.307692  0.461538    0.00045517  27 t-inv F
 -0.000000  0.153846 -0.307692    0.00045517  27 t-inv F
  0.000000 -0.153846  0.307692    0.00045517  27 t-inv F
 -0.153846 -0.461538 -0.153846    0.00045517  27 t-inv F
  0.153846  0.461538  0.153846    0.00045517  27 t-inv F
 -0.461538 -0.307692 -0.307692    0.00045517  27 t-inv F
  0.461538  0.307692  0.307692    0.00045517  27 t-inv F
 -0.307692 -0.000000  0.153846    0.00045517  27 t-inv F
  0.307692  0.000000 -0.153846    0.00045517  27 t-inv F
  0.230769 -0.153846 -0.000000    0.00045517  28 t-inv F
  0.000000 -0.230769  0.153846    0.00045517  28 t-inv F
 -0.000000  0.230769 -0.153846    0.00045517  28 t-inv F
  0.153846  0.000000 -0.230769    0.00045517  28 t-inv F
 -0.153846 -0.000000  0.230769    0.00045517  28 t-inv F
  0.153846  0.153846  0.384615    0.00045517  28 t-inv F
 -0.153846 -0.153846 -0.384615    0.00045517  28 t-inv F
 -0.230769 -0.384615 -0.230769    0.00045517  28 t-inv F
  0.230769  0.384615  0.230769    0.00045517  28 t-inv F
  0.153846 -0.230769 -0.000000    0.00045517  28 t-inv F
 -0.153846  0.230769  0.000000    0.00045517  28 t-inv F
 -0.384615 -0.153846 -0.153846    0.00045517  28 t-inv F
  0.384615  0.153846  0.153846    0.00045517  28 t-inv F
 -0.230769 -0.230769 -0.384615    0.00045517  28 t-inv F
  0.230769  0.230769  0.384615    0.00045517  28 t-inv F
 -0.000000  0.153846 -0.230769    0.00045517  28 t-inv F
  0.000000 -0.153846  0.230769    0.00045517  28 t-inv F
 -0.153846 -0.384615 -0.153846    0.00045517  28 t-inv F
  0.153846  0.384615  0.153846    0.00045517  28 t-inv F
 -0.384615 -0.230769 -0.230769    0.00045517  28 t-inv F
  0.384615  0.230769  0.230769    0.00045517  28 t-inv F
 -0.230769 -0.000000  0.153846    0.00045517  28 t-inv F
  0.230769  0.000000 -0.153846    0.00045517  28 t-inv F
  0.153846 -0.153846 -0.000000    0.00045517  29 t-inv F
  0.000000 -0.153846  0.153846    0.00045517  29 t-inv F
 -0.000000  0.153846 -0.153846    0.00045517  29 t-inv F
  0.153846  0.000000 -0.153846    0.00045517  29 t-inv F
 -0.153846 -0.000000  0.153846    0.00045517  29 t-inv F
  0.153846  0.153846  0.307692    0.00045517  29 t-inv F
 -0.153846 -0.153846 -0.307692    0.00045517  29 t-inv F
 -0.153846 -0.307692 -0.153846    0.00045517  29 t-inv F
  0.153846  0.307692  0.153846    0.00045517  29 t-inv F
 -0.307692 -0.153846 -0.153846    0.00045517  29 t-inv F
  0.307692  0.153846  0.153846    0.00045517  29 t-inv F
 -0.230769 -0.230769 -0.000000    0.00045517  30 t-inv F
  0.000000  0.230769  0.230769    0.00045517  30 t-inv F
 -0.000000 -0.230769 -0.230769    0.00045517  30 t-inv F
  0.230769  0.000000  0.230769    0.00045517  30 t-inv F
 -0.230769 -0.000000 -0.230769    0.00045517  30 t-inv F
 -0.307692 -0.230769 -0.000000    0.00045517  31 t-inv F
  0.000000  0.307692  0.230769    0.00045517  31 t-inv F
 -0.000000 -0.307692 -0.230769    0.00045517  31 t-inv F
  0.230769  0.000000  0.307692    0.00045517  31 t-inv F
 -0.230769 -0.000000 -0.307692    0.00045517  31 t-inv F
  0.230769  0.230769 -0.076923    0.00045517  31 t-inv F
 -0.230769 -0.230769  0.076923    0.00045517  31 t-inv F
  0.307692  0.076923  0.307692    0.00045517  31 t-inv F
 -0.307692 -0.076923 -0.307692    0.00045517  31 t-inv F
  0.230769  0.307692 -0.000000    0.00045517  31 t-inv F
 -0.230769 -0.307692  0.000000    0.00045517  31 t-inv F
  0.076923 -0.230769 -0.230769    0.00045517  31 t-inv F
 -0.076923  0.230769  0.230769    0.00045517  31 t-inv F
  0.307692  0.307692  0.076923    0.00045517  31 t-inv F
 -0.307692 -0.307692 -0.076923    0.00045517  31 t-inv F
 -0.000000  0.230769  0.307692    0.00045517  31 t-inv F
  0.000000 -0.230769 -0.307692    0.00045517  31 t-inv F
 -0.230769  0.076923 -0.230769    0.00045517  31 t-inv F
  0.230769 -0.076923  0.230769    0.00045517  31 t-inv F
  0.076923  0.307692  0.307692    0.00045517  31 t-inv F
 -0.076923 -0.307692 -0.307692    0.00045517  31 t-inv F
  0.307692 -0.000000  0.230769    0.00045517  31 t-inv F
 -0.307692  0.000000 -0.230769    0.00045517  31 t-inv F
 -0.384615 -0.230769 -0.000000    0.00045517  32 t-inv F
  0.000000  0.384615  0.230769    0.00045517  32 t-inv F
 -0.000000 -0.384615 -0.230769    0.00045517  32 t-inv F
  0.230769  0.000000  0.384615    0.00045517  32 t-inv F
 -0.230769 -0.000000 -0.384615    0.00045517  32 t-inv F
  0.230769  0.230769 -0.153846    0.00045517  32 t-inv F
 -0.230769 -0.230769  0.153846    0.00045517  32 t-inv F
  0.384615  0.153846  0.384615    0.00045517  32 t-inv F
 -0.384615 -0.153846 -0.384615    0.00045517  32 t-inv F
  0.230769  0.384615 -0.000000    0.00045517  32 t-inv F
 -0.230769 -0.384615  0.000000    0.00045517  32 t-inv F
  0.153846 -0.230769 -0.230769    0.00045517  32 t-inv F
 -0.153846  0.230769  0.230769    0.00045517  32 t-inv F
  0.384615  0.384615  0.153846    0.00045517  32 t-inv F
 -0.384615 -0.384615 -0.153846    0.00045517  32 t-inv F
 -0.000000  0.230769  0.384615    0.00045517  32 t-inv F
  0.000000 -0.230769 -0.384615    0.00045517  32 t-inv F
 -0.230769  0.153846 -0.230769    0.00045517  32 t-inv F
  0.230769 -0.153846  0.230769    0.00045517  32 t-inv F
  0.153846  0.384615  0.384615    0.00045517  32 t-inv F
 -0.153846 -0.384615 -0.384615    0.00045517  32 t-inv F
  0.384615 -0.000000  0.230769    0.00045517  32 t-inv F
 -0.384615  0.000000 -0.230769    0.00045517  32 t-inv F
 -0.461538 -0.230769 -0.000000    0.00045517  33 t-inv F
  0.000000  0.461538  0.230769    0.00045517  33 t-inv F
 -0.000000 -0.461538 -0.230769    0.00045517  33 t-inv F
  0.230769  0.000000  0.461538    0.00045517  33 t-inv F
 -0.230769 -0.000000 -0.461538    0.00045517  33 t-inv F
  0.230769  0.230769 -0.230769    0.00045517  33 t-inv F
 -0.230769 -0.230769  0.230769    0.00045517  33 t-inv F
  0.461538  0.230769  0.461538    0.00045517  33 t-inv F
 -0.461538 -0.230769 -0.461538    0.00045517  33 t-inv F
  0.230769  0.461538 -0.000000    0.00045517  33 t-inv F
 -0.230769 -0.461538  0.000000    0.00045517  33 t-inv F
  0.230769 -0.230769 -0.230769    0.00045517  33 t-inv F
 -0.230769  0.230769  0.230769    0.00045517  33 t-inv F
  0.461538  0.461538  0.230769    0.00045517  33 t-inv F
 -0.461538 -0.461538 -0.230769    0.00045517  33 t-inv F
 -0.000000  0.230769  0.461538    0.00045517  33 t-inv F
  0.000000 -0.230769 -0.461538    0.00045517  33 t-inv F
 -0.230769  0.230769 -0.230769    0.00045517  33 t-inv F
  0.230769 -0.230769  0.230769    0.00045517  33 t-inv F
  0.230769  0.461538  0.461538    0.00045517  33 t-inv F
 -0.230769 -0.461538 -0.461538    0.00045517  33 t-inv F
  0.461538 -0.000000  0.230769    0.00045517  33 t-inv F
 -0.461538  0.000000 -0.230769    0.00045517  33 t-inv F
  0.461538 -0.230769 -0.000000    0.00045517  34 t-inv F
  0.000000 -0.461538  0.230769    0.00045517  34 t-inv F
 -0.000000  0.461538 -0.230769    0.00045517  34 t-inv F
  0.230769  0.000000 -0.461538    0.00045517  34 t-inv F
 -0.230769 -0.000000  0.461538    0.00045517  34 t-inv F
  0.230769  0.230769  0.692308    0.00045517  34 t-inv F
 -0.230769 -0.230769 -0.692308    0.00045517  34 t-inv F
 -0.461538 -0.692308 -0.461538    0.00045517  34 t-inv F
  0.461538  0.692308  0.461538    0.00045517  34 t-inv F
  0.230769 -0.461538 -0.000000    0.00045517  34 t-inv F
 -0.230769  0.461538  0.000000    0.00045517  34 t-inv F
 -0.692308 -0.230769 -0.230769    0.00045517  34 t-inv F
  0.692308  0.230769  0.230769    0.00045517  34 t-inv F
 -0.461538 -0.461538 -0.692308    0.00045517  34 t-inv F
  0.461538  0.461538  0.692308    0.00045517  34 t-inv F
 -0.000000  0.230769 -0.461538    0.00045517  34 t-inv F
  0.000000 -0.230769  0.461538    0.00045517  34 t-inv F
 -0.230769 -0.692308 -0.230769    0.00045517  34 t-inv F
  0.230769  0.692308  0.230769    0.00045517  34 t-inv F
 -0.692308 -0.461538 -0.461538    0.00045517  34 t-inv F
  0.692308  0.461538  0.461538    0.00045517  34 t-inv F
 -0.461538 -0.000000  0.230769    0.00045517  34 t-inv F
  0.461538  0.000000 -0.230769    0.00045517  34 t-inv F
  0.384615 -0.230769 -0.000000    0.00045517  35 t-inv F
  0.000000 -0.384615  0.230769    0.00045517  35 t-inv F
 -0.000000  0.384615 -0.230769    0.00045517  35 t-inv F
  0.230769  0.000000 -0.384615    0.00045517  35 t-inv F
 -0.230769 -0.000000  0.384615    0.00045517  35 t-inv F
  0.230769  0.230769  0.615385    0.00045517  35 t-inv F
 -0.230769 -0.230769 -0.615385    0.00045517  35 t-inv F
 -0.384615 -0.615385 -0.384615    0.00045517  35 t-inv F
  0.384615  0.615385  0.384615    0.00045517  35 t-inv F
  0.230769 -0.384615 -0.000000    0.00045517  35 t-inv F
 -0.230769  0.384615  0.000000    0.00045517  35 t-inv F
 -0.615385 -0.230769 -0.230769    0.00045517  35 t-inv F
  0.615385  0.230769  0.230769    0.00045517  35 t-inv F
 -0.384615 -0.384615 -0.615385    0.00045517  35 t-inv F
  0.384615  0.384615  0.615385    0.00045517  35 t-inv F
 -0.000000  0.230769 -0.384615    0.00045517  35 t-inv F
  0.000000 -0.230769  0.384615    0.00045517  35 t-inv F
 -0.230769 -0.615385 -0.230769    0.00045517  35 t-inv F
  0.230769  0.615385  0.230769    0.00045517  35 t-inv F
 -0.615385 -0.384615 -0.384615    0.00045517  35 t-inv F
  0.615385  0.384615  0.384615    0.00045517  35 t-inv F
 -0.384615 -0.000000  0.230769    0.00045517  35 t-inv F
  0.384615  0.000000 -0.230769    0.00045517  35 t-inv F
  0.307692 -0.230769 -0.000000    0.00045517  36 t-inv F
  0.000000 -0.307692  0.230769    0.00045517  36 t-inv F
 -0.000000  0.307692 -0.230769    0.00045517  36 t-inv F
  0.230769  0.000000 -0.307692    0.00045517  36 t-inv F
 -0.230769 -0.000000  0.307692    0.00045517  36 t-inv F
  0.230769  0.230769  0.538462    0.00045517  36 t-inv F
 -0.230769 -0.230769 -0.538462    0.00045517  36 t-inv F
 -0.307692 -0.538462 -0.307692    0.00045517  36 t-inv F
  0.307692  0.538462  0.307692    0.00045517  36 t-inv F
  0.230769 -0.307692 -0.000000    0.00045517  36 t-inv F
 -0.230769  0.307692  0.000000    0.00045517  36 t-inv F
 -0.538462 -0.230769 -0.230769    0.00045517  36 t-inv F
  0.538462  0.230769  0.230769    0.00045517  36 t-inv F
 -0.307692 -0.307692 -0.538462    0.00045517  36 t-inv F
  0.307692  0.307692  0.538462    0.00045517  36 t-inv F
 -0.000000  0.230769 -0.307692    0.00045517  36 t-inv F
  0.000000 -0.230769  0.307692    0.00045517  36 t-inv F
 -0.230769 -0.538462 -0.230769    0.00045517  36 t-inv F
  0.230769  0.538462  0.230769    0.00045517  36 t-inv F
 -0.538462 -0.307692 -0.307692    0.00045517  36 t-inv F
  0.538462  0.307692  0.307692    0.00045517  36 t-inv F
 -0.307692 -0.000000  0.230769    0.00045517  36 t-inv F
  0.307692  0.000000 -0.230769    0.00045517  36 t-inv F
  0.230769 -0.230769 -0.000000    0.00045517  37 t-inv F
  0.000000 -0.230769  0.230769    0.00045517  37 t-inv F
 -0.000000  0.230769 -0.230769    0.00045517  37 t-inv F
  0.230769  0.000000 -0.230769    0.00045517  37 t-inv F
 -0.230769 -0.000000  0.230769    0.00045517  37 t-inv F
  0.230769  0.230769  0.461538    0.00045517  37 t-inv F
 -0.230769 -0.230769 -0.461538    0.00045517  37 t-inv F
 -0.230769 -0.461538 -0.230769    0.00045517  37 t-inv F
  0.230769  0.461538  0.230769    0.00045517  37 t-inv F
 -0.461538 -0.230769 -0.230769    0.00045517  37 t-inv F
  0.461538  0.230769  0.230769    0.00045517  37 t-inv F
 -0.307692 -0.307692 -0.000000    0.00045517  38 t-inv F
  0.000000  0.307692  0.307692    0.00045517  38 t-inv F
 -0.000000 -0.307692 -0.307692    0.00045517  38 t-inv F
  0.307692  0.000000  0.307692    0.00045517  38 t-inv F
 -0.307692 -0.000000 -0.307692    0.00045517  38 t-inv F
 -0.384615 -0.307692 -0.000000    0.00045517  39 t-inv F
  0.000000  0.384615  0.307692    0.00045517  39 t-inv F
 -0.000000 -0.384615 -0.307692    0.00045517  39 t-inv F
  0.307692  0.000000  0.384615    0.00045517  39 t-inv F
 -0.307692 -0.000000 -0.384615    0.00045517  39 t-inv F
  0.307692  0.307692 -0.076923    0.00045517  39 t-inv F
 -0.307692 -0.307692  0.076923    0.00045517  39 t-inv F
  0.384615  0.076923  0.384615    0.00045517  39 t-inv F
 -0.384615 -0.076923 -0.384615    0.00045517  39 t-inv F
  0.307692  0.384615 -0.000000    0.00045517  39 t-inv F
 -0.307692 -0.384615  0.000000    0.00045517  39 t-inv F
  0.076923 -0.307692 -0.307692    0.00045517  39 t-inv F
 -0.076923  0.307692  0.307692    0.00045517  39 t-inv F
  0.384615  0.384615  0.076923    0.00045517  39 t-inv F
 -0.384615 -0.384615 -0.076923    0.00045517  39 t-inv F
 -0.000000  0.307692  0.384615    0.00045517  39 t-inv F
  0.000000 -0.307692 -0.384615    0.00045517  39 t-inv F
 -0.307692  0.076923 -0.307692    0.00045517  39 t-inv F
  0.307692 -0.076923  0.307692    0.00045517  39 t-inv F
  0.076923  0.384615  0.384615    0.00045517  39 t-inv F
 -0.076923 -0.384615 -0.384615    0.00045517  39 t-inv F
  0.384615 -0.000000  0.307692    0.00045517  39 t-inv F
 -0.384615  0.000000 -0.307692    0.00045517  39 t-inv F
 -0.461538 -0.307692 -0.000000    0.00045517  40 t-inv F
  0.000000  0.461538  0.307692    0.00045517  40 t-inv F
 -0.000000 -0.461538 -0.307692    0.00045517  40 t-inv F
  0.307692  0.000000  0.461538    0.00045517  40 t-inv F
 -0.307692 -0.000000 -0.461538    0.00045517  40 t-inv F
  0.307692  0.307692 -0.153846    0.00045517  40 t-inv F
 -0.307692 -0.307692  0.153846    0.00045517  40 t-inv F
  0.461538  0.153846  0.461538    0.00045517  40 t-inv F
 -0.461538 -0.153846 -0.461538    0.00045517  40 t-inv F
  0.307692  0.461538 -0.000000    0.00045517  40 t-inv F
 -0.307692 -0.461538  0.000000    0.00045517  40 t-inv F
  0.153846 -0.307692 -0.307692    0.00045517  40 t-inv F
 -0.153846  0.307692  0.307692    0.00045517  40 t-inv F
  0.461538  0.461538  0.153846    0.00045517  40 t-inv F
 -0.461538 -0.461538 -0.153846    0.00045517  40 t-inv F
 -0.000000  0.307692  0.461538    0.00045517  40 t-inv F
  0.000000 -0.307692 -0.461538    0.00045517  40 t-inv F
 -0.307692  0.153846 -0.307692    0.00045517  40 t-inv F
  0.307692 -0.153846  0.307692    0.00045517  40 t-inv F
  0.153846  0.461538  0.461538    0.00045517  40 t-inv F
 -0.153846 -0.461538 -0.461538    0.00045517  40 t-inv F
  0.461538 -0.000000  0.307692    0.00045517  40 t-inv F
 -0.461538  0.000000 -0.307692    0.00045517  40 t-inv F
  0.461538 -0.307692 -0.000000    0.00045517  41 t-inv F
  0.000000 -0.461538  0.307692    0.00045517  41 t-inv F
 -0.000000  0.461538 -0.307692    0.00045517  41 t-inv F
  0.307692  0.000000 -0.461538    0.00045517  41 t-inv F
 -0.307692 -0.000000  0.461538    0.00045517  41 t-inv F
  0.307692  0.307692  0.769231    0.00045517  41 t-inv F
 -0.307692 -0.307692 -0.769231    0.00045517  41 t-inv F
 -0.461538 -0.769231 -0.461538    0.00045517  41 t-inv F
  0.461538  0.769231  0.461538    0.00045517  41 t-inv F
  0.307692 -0.461538 -0.000000    0.00045517  41 t-inv F
 -0.307692  0.461538  0.000000    0.00045517  41 t-inv F
 -0.769231 -0.307692 -0.307692    0.00045517  41 t-inv F
  0.769231  0.307692  0.307692    0.00045517  41 t-inv F
 -0.461538 -0.461538 -0.769231    0.00045517  41 t-inv F
  0.461538  0.461538  0.769231    0.00045517  41 t-inv F
 -0.000000  0.307692 -0.461538    0.00045517  41 t-inv F
  0.000000 -0.307692  0.461538    0.00045517  41 t-inv F
 -0.307692 -0.769231 -0.307692    0.00045517  41 t-inv F
  0.307692  0.769231  0.307692    0.00045517  41 t-inv F
 -0.769231 -0.461538 -0.461538    0.00045517  41 t-inv F
  0.769231  0.461538  0.461538    0.00045517  41 t-inv F
 -0.461538 -0.000000  0.307692    0.00045517  41 t-inv F
  0.461538  0.000000 -0.307692    0.00045517  41 t-inv F
  0.384615 -0.307692 -0.000000    0.00045517  42 t-inv F
  0.000000 -0.384615  0.307692    0.00045517  42 t-inv F
 -0.000000  0.384615 -0.307692    0.00045517  42 t-inv F
  0.307692  0.000000 -0.384615    0.00045517  42 t-inv F
 -0.307692 -0.000000  0.384615    0.00045517  42 t-inv F
  0.307692  0.307692  0.692308    0.00045517  42 t-inv F
 -0.307692 -0.307692 -0.692308    0.00045517  42 t-inv F
 -0.384615 -0.692308 -0.384615    0.00045517  42 t-inv F
  0.384615  0.692308  0.384615    0.00045517  42 t-inv F
  0.307692 -0.384615 -0.000000    0.00045517  42 t-inv F
 -0.307692  0.384615  0.000000    0.00045517  42 t-inv F
 -0.692308 -0.307692 -0.307692    0.00045517  42 t-inv F
  0.692308  0.307692  0.307692    0.00045517  42 t-inv F
 -0.384615 -0.384615 -0.692308    0.00045517  42 t-inv F
  0.384615  0.384615  0.692308    0.00045517  42 t-inv F
 -0.000000  0.307692 -0.384615    0.00045517  42 t-inv F
  0.000000 -0.307692  0.384615    0.00045517  42 t-inv F
 -0.307692 -0.692308 -0.307692    0.00045517  42 t-inv F
  0.307692  0.692308  0.307692    0.00045517  42 t-inv F
 -0.692308 -0.384615 -0.384615    0.00045517  42 t-inv F
  0.692308  0.384615  0.384615    0.00045517  42 t-inv F
 -0.384615 -0.000000  0.307692    0.00045517  42 t-inv F
  0.384615  0.000000 -0.307692    0.00045517  42 t-inv F
  0.307692 -0.307692 -0.000000    0.00045517  43 t-inv F
  0.000000 -0.307692  0.307692    0.00045517  43 t-inv F
 -0.000000  0.307692 -0.307692    0.00045517  43 t-inv F
  0.307692  0.000000 -0.307692    0.00045517  43 t-inv F
 -0.307692 -0.000000  0.307692    0.00045517  43 t-inv F
  0.307692  0.307692  0.615385    0.00045517  43 t-inv F
 -0.307692 -0.307692 -0.615385    0.00045517  43 t-inv F
 -0.307692 -0.615385 -0.307692    0.00045517  43 t-inv F
  0.307692  0.615385  0.307692    0.00045517  43 t-inv F
 -0.615385 -0.307692 -0.307692    0.00045517  43 t-inv F
  0.615385  0.307692  0.307692    0.00045517  43 t-inv F
 -0.384615 -0.384615 -0.000000    0.00045517  44 t-inv F
  0.000000  0.384615  0.384615    0.00045517  44 t-inv F
 -0.000000 -0.384615 -0.384615    0.00045517  44 t-inv F
  0.384615  0.000000  0.384615    0.00045517  44 t-inv F
 -0.384615 -0.000000 -0.384615    0.00045517  44 t-inv F
 -0.461538 -0.384615 -0.000000    0.00045517  45 t-inv F
  0.000000  0.461538  0.384615    0.00045517  45 t-inv F
 -0.000000 -0.461538 -0.384615    0.00045517  45 t-inv F
  0.384615  0.000000  0.461538    0.00045517  45 t-inv F
 -0.384615 -0.000000 -0.461538    0.00045517  45 t-inv F
  0.384615  0.384615 -0.076923    0.00045517  45 t-inv F
 -0.384615 -0.384615  0.076923    0.00045517  45 t-inv F
  0.461538  0.076923  0.461538    0.00045517  45 t-inv F
 -0.461538 -0.076923 -0.461538    0.00045517  45 t-inv F
  0.384615  0.461538 -0.000000    0.00045517  45 t-inv F
 -0.384615 -0.461538  0.000000    0.00045517  45 t-inv F
  0.076923 -0.384615 -0.384615    0.00045517  45 t-inv F
 -0.076923  0.384615  0.384615    0.00045517  45 t-inv F
  0.461538  0.461538  0.076923    0.00045517  45 t-inv F
 -0.461538 -0.461538 -0.076923    0.00045517  45 t-inv F
 -0.000000  0.384615  0.461538    0.00045517  45 t-inv F
  0.000000 -0.384615 -0.461538    0.00045517  45 t-inv F
 -0.384615  0.076923 -0.384615    0.00045517  45 t-inv F
  0.384615 -0.076923  0.384615    0.00045517  45 t-inv F
  0.076923  0.461538  0.461538    0.00045517  45 t-inv F
 -0.076923 -0.461538 -0.461538    0.00045517  45 t-inv F
  0.461538 -0.000000  0.384615    0.00045517  45 t-inv F
 -0.461538  0.000000 -0.384615    0.00045517  45 t-inv F
  0.461538 -0.384615 -0.000000    0.00045517  46 t-inv F
  0.000000 -0.461538  0.384615    0.00045517  46 t-inv F
 -0.000000  0.461538 -0.384615    0.00045517  46 t-inv F
  0.384615  0.000000 -0.461538    0.00045517  46 t-inv F
 -0.384615 -0.000000  0.461538    0.00045517  46 t-inv F
  0.384615  0.384615  0.846154    0.00045517  46 t-inv F
 -0.384615 -0.384615 -0.846154    0.00045517  46 t-inv F
 -0.461538 -0.846154 -0.461538    0.00045517  46 t-inv F
  0.461538  0.846154  0.461538    0.00045517  46 t-inv F
  0.384615 -0.461538 -0.000000    0.00045517  46 t-inv F
 -0.384615  0.461538  0.000000    0.00045517  46 t-inv F
 -0.846154 -0.384615 -0.384615    0.00045517  46 t-inv F
  0.846154  0.384615  0.384615    0.00045517  46 t-inv F
 -0.461538 -0.461538 -0.846154    0.00045517  46 t-inv F
  0.461538  0.461538  0.846154    0.00045517  46 t-inv F
 -0.000000  0.384615 -0.461538    0.00045517  46 t-inv F
  0.000000 -0.384615  0.461538    0.00045517  46 t-inv F
 -0.384615 -0.846154 -0.384615    0.00045517  46 t-inv F
  0.384615  0.846154  0.384615    0.00045517  46 t-inv F
 -0.846154 -0.461538 -0.461538    0.00045517  46 t-inv F
  0.846154  0.461538  0.461538    0.00045517  46 t-inv F
 -0.461538 -0.000000  0.384615    0.00045517  46 t-inv F
  0.461538  0.000000 -0.384615    0.00045517  46 t-inv F
  0.384615 -0.384615 -0.000000    0.00045517  47 t-inv F
  0.000000 -0.384615  0.384615    0.00045517  47 t-inv F
 -0.000000  0.384615 -0.384615    0.00045517  47 t-inv F
  0.384615  0.000000 -0.384615    0.00045517  47 t-inv F
 -0.384615 -0.000000  0.384615    0.00045517  47 t-inv F
  0.384615  0.384615  0.769231    0.00045517  47 t-inv F
 -0.384615 -0.384615 -0.769231    0.00045517  47 t-inv F
 -0.384615 -0.769231 -0.384615    0.00045517  47 t-inv F
  0.384615  0.769231  0.384615    0.00045517  47 t-inv F
 -0.769231 -0.384615 -0.384615    0.00045517  47 t-inv F
  0.769231  0.384615  0.384615    0.00045517  47 t-inv F
 -0.461538 -0.461538 -0.000000    0.00045517  48 t-inv F
  0.000000  0.461538  0.461538    0.00045517  48 t-inv F
 -0.000000 -0.461538 -0.461538    0.00045517  48 t-inv F
  0.461538  0.000000  0.461538    0.00045517  48 t-inv F
 -0.461538 -0.000000 -0.461538    0.00045517  48 t-inv F
  0.461538 -0.461538 -0.000000    0.00045517  49 t-inv F
  0.000000 -0.461538  0.461538    0.00045517  49 t-inv F
 -0.000000  0.461538 -0.461538    0.00045517  49 t-inv F
  0.461538  0.000000 -0.461538    0.00045517  49 t-inv F
 -0.461538 -0.000000  0.461538    0.00045517  49 t-inv F
  0.461538  0.461538  0.923077    0.00045517  49 t-inv F
 -0.461538 -0.461538 -0.923077    0.00045517  49 t-inv F
 -0.461538 -0.923077 -0.461538    0.00045517  49 t-inv F
  0.461538  0.923077  0.461538    0.00045517  49 t-inv F
 -0.923077 -0.461538 -0.461538    0.00045517  49 t-inv F
  0.923077  0.461538  0.461538    0.00045517  49 t-inv F
 -0.230769 -0.153846 -0.076923    0.00045517  50 t-inv F
  0.076923  0.230769  0.153846    0.00045517  50 t-inv F
 -0.076923 -0.230769 -0.153846    0.00045517  50 t-inv F
  0.153846  0.076923  0.230769    0.00045517  50 t-inv F
 -0.153846 -0.076923 -0.230769    0.00045517  50 t-inv F
  0.153846  0.076923 -0.076923    0.00045517  50 t-inv F
[...]
      8      -0.0001      0.00000
      9      -0.0000      0.00000
     10      -0.0000      0.00000
     11       0.0000      0.00000
     12       0.0000      0.00000
     13       0.0000      0.00000
     14      -0.0001      0.00000
     15      -0.0000      0.00000
     16      -0.0000      0.00000

 k-point 185 :       0.8462    0.3846    0.3077
  band No.  band energies     occupation 
      1       0.0002      0.00000
      2       0.0002      0.00000
      3       0.0002      0.00000
      4       0.0002      0.00000
      5       0.0002      0.00000
      6      -0.0001      0.00000
      7       0.0001      0.00000
      8      -0.0001      0.00000
      9      -0.0000      0.00000
     10      -0.0000      0.00000
     11       0.0000      0.00000
     12       0.0000      0.00000
     13       0.0000      0.00000
     14      -0.0000      0.00000
     15      -0.0000      0.00000
     16       0.0000      0.00000

 k-point 186 :      -0.0769    0.3846    0.3077
  band No.  band energies     occupation 
      1       0.0002      0.00000
      2       0.0002      0.00000
      3       0.0002      0.00000
      4       0.0002      0.00000
      5       0.0002      0.00000
      6      -0.0001      0.00000
      7       0.0001      0.00000
      8      -0.0000      0.00000
      9      -0.0000      0.00000
     10      -0.0000      0.00000
     11       0.0000      0.00000
     12       0.0000      0.00000
     13      -0.0000      0.00000
     14       0.0000      0.00000
     15       0.0000      0.00000
     16      -0.0000      0.00000

 k-point 187 :       0.7692    0.4615    0.3077
  band No.  band energies     occupation 
      1       0.0002      0.00000
      2       0.0002      0.00000
      3       0.0002      0.00000
      4       0.0002      0.00000
      5       0.0002      0.00000
      6      -0.0001      0.00000
      7       0.0001      0.00000
      8      -0.0001      0.00000
      9      -0.0000      0.00000
     10      -0.0000      0.00000
     11       0.0000      0.00000
     12       0.0000      0.00000
     13      -0.0001      0.00000
     14       0.0000      0.00000
     15      -0.0000      0.00000
     16       0.1178      0.00000

 k-point 188 :      -0.1538   -0.5385    0.3077
  band No.  band energies     occupation 
      1       0.0002      0.00000
      2       0.0002      0.00000
      3       0.0002      0.00000
      4       0.0002      0.00000
      5       0.0002      0.00000
      6      -0.0001      0.00000
      7       0.0001      0.00000
      8      -0.0001      0.00000
      9      -0.0000      0.00000
     10      -0.0000      0.00000
     11       0.0000      0.00000
     12       0.0000      0.00000
     13      -0.0001      0.00000
     14       0.0000      0.00000
     15      -0.0000      0.00000
     16       0.0000      0.00000

 k-point 189 :       0.0000    0.3846    0.3846
  band No.  band energies     occupation 
      1       0.0002      0.00000
      2       0.0002      0.00000
      3       0.0002      0.00000
      4       0.0002      0.00000
      5       0.0002      0.00000
      6      -0.0001      0.00000
      7       0.0001      0.00000
      8      -0.0000      0.00000
      9      -0.0000      0.00000
     10      -0.0000      0.00000
     11       0.0000      0.00000
     12       0.0000      0.00000
     13       0.0000      0.00000
     14      -0.0000      0.00000
     15       0.0000      0.00000
     16       0.0000      0.00000

 k-point 190 :       0.7692    0.3846    0.3846
  band No.  band energies     occupation 
      1       0.0002      0.00000
      2       0.0002      0.00000
      3       0.0002      0.00000
      4       0.0002      0.00000
      5       0.0002      0.00000
      6      -0.0001      0.00000
      7       0.0001      0.00000
      8      -0.0001      0.00000
      9      -0.0000      0.00000
     10      -0.0000      0.00000
     11       0.0000      0.00000
     12       0.0000      0.00000
     13       0.0000      0.00000
     14      -0.0001      0.00000
     15       0.0000      0.00000
     16      -0.0000      0.00000

 k-point 191 :       0.8462    0.3846    0.3846
  band No.  band energies     occupation 
      1       0.0002      0.00000
      2       0.0002      0.00000
      3       0.0002      0.00000
      4       0.0002      0.00000
      5       0.0002      0.00000
      6      -0.0001      0.00000
      7       0.0001      0.00000
      8      -0.0001      0.00000
      9      -0.0000      0.00000
     10      -0.0000      0.00000
     11       0.0000      0.00000
     12       0.0000      0.00000
     13       0.0000      0.00000
     14      -0.0001      0.00000
     15      -0.0000      0.00000
     16      -0.0000      0.00000

 k-point 192 :      -0.0769    0.3846    0.3846
  band No.  band energies     occupation 
      1       0.0002      0.00000
      2       0.0002      0.00000
      3       0.0002      0.00000
      4       0.0002      0.00000
      5       0.0002      0.00000
      6      -0.0001      0.00000
      7       0.0001      0.00000
      8      -0.0001      0.00000
      9      -0.0000      0.00000
     10      -0.0000      0.00000
     11       0.0000      0.00000
     12       0.0000      0.00000
     13       0.0000      0.00000
     14      -0.0001      0.00000
     15       0.0000      0.00000
     16       0.0000      0.00000

 k-point 193 :       0.8462    0.4615    0.3846
  band No.  band energies     occupation 
      1       0.0002      0.00000
      2       0.0002      0.00000
      3       0.0002      0.00000
      4       0.0002      0.00000
      5       0.0002      0.00000
      6      -0.0001      0.00000
      7       0.0001      0.00000
      8      -0.0001      0.00000
      9      -0.0000      0.00000
     10      -0.0000      0.00000
     11       0.0000      0.00000
     12       0.0000      0.00000
     13       0.0000      0.00000
     14      -0.0001      0.00000
     15      -0.0000      0.00000
     16      -0.0168      0.00000

 k-point 194 :      -0.0769   -0.5385    0.3846
  band No.  band energies     occupation 
      1       0.0002      0.00000
      2       0.0002      0.00000
      3       0.0002      0.00000
      4       0.0002      0.00000
      5       0.0002      0.00000
      6      -0.0001      0.00000
      7       0.0001      0.00000
      8      -0.0001      0.00000
      9      -0.0000      0.00000
     10      -0.0000      0.00000
     11       0.0000      0.00000
     12       0.0000      0.00000
     13       0.0000      0.00000
     14      -0.0001      0.00000
     15      -0.0000      0.00000
     16       0.0000      0.00000

 k-point 195 :       0.0000    0.4615    0.4615
  band No.  band energies     occupation 
      1       0.0002      0.00000
      2       0.0002      0.00000
      3       0.0002      0.00000
      4       0.0002      0.00000
      5       0.0002      0.00000
      6      -0.0001      0.00000
      7       0.0001      0.00000
      8      -0.0001      0.00000
      9      -0.0000      0.00000
     10      -0.0000      0.00000
     11       0.0000      0.00000
     12       0.0000      0.00000
     13       0.0000      0.00000
     14      -0.0001      0.00000
     15       0.0000      0.00000
     16       0.0000      0.00000

 k-point 196 :       0.9231    0.4615    0.4615
  band No.  band energies     occupation 
      1       0.0002      0.00000
      2       0.0002      0.00000
      3       0.0002      0.00000
      4       0.0002      0.00000
      5       0.0002      0.00000
      6      -0.0001      0.00000
      7       0.0001      0.00000
      8      -0.0001      0.00000
      9      -0.0000      0.00000
     10      -0.0000      0.00000
     11       0.0000      0.00000
     12       0.0000      0.00000
     13       0.0000      0.00000
     14      -0.0001      0.00000
     15       0.0000      0.00000
     16       0.0001      0.00000


------------------------ aborting loop because EDIFF is reached ----------------------------------------


    FORLOC:  cpu time    0.0053: real time    0.0053
    FORNL :  cpu time    0.5538: real time    0.5538
    STRESS:  cpu time    7.2905: real time    7.2909
    FORCOR:  cpu time    0.0781: real time    0.0783
    OFIELD:  cpu time    0.0004: real time    0.0004
    FORLOC:  cpu time    0.0053: real time    0.0053
    FORNL :  cpu time    0.5525: real time    0.5525
    STRESS:  cpu time    7.2714: real time    7.2718
    FORCOR:  cpu time    0.0764: real time    0.0764
    OFIELD:  cpu time    0.0004: real time    0.0004
    FORLOC:  cpu time    0.0053: real time    0.0053
    FORNL :  cpu time    0.5508: real time    0.5509
    STRESS:  cpu time    7.2839: real time    7.2843
    FORCOR:  cpu time    0.0767: real time    0.0767
    OFIELD:  cpu time    0.0006: real time    0.0006
    FORLOC:  cpu time    0.0053: real time    0.0053
    FORNL :  cpu time    0.5551: real time    0.5551
    STRESS:  cpu time    7.2893: real time    7.2897
    FORCOR:  cpu time    0.0763: real time    0.0763
    OFIELD:  cpu time    0.0005: real time    0.0004

 INTERNAL STRAIN TENSOR  FOR ION    2  DIRECTION 1   (eV/Angst):
 -----------------------------------------------------------------------------
     0.00363 -0.00000  0.00000
    -0.00000 -0.00104 -0.00000
    -0.00000 -0.00000 -0.00104


 POSITION                   FORCE-CONSTANT FOR ION    2 DIRECTION 1 (eV/Angst/Angst)
 -----------------------------------------------------------------------------------
      0.00000      0.00000      0.00000         0.202901      0.000000      0.000000
      3.28431      3.28431      3.28431        -0.202901      0.000000      0.000000
 -----------------------------------------------------------------------------------
    total drift:                                0.000000      0.000000      0.000000


 BORN EFFECTIVE CHARGE FOR ION    2 DIRECTION 1 :   5.722  -0.000   0.000
                   rigid augmentation           :  -5.571   0.000   0.000
                   ionic contribution           :  14.000   0.000   0.000
                   Berry contribution           :  -2.707  -0.000   0.000


--------------------------------------------------------------------------------------------------------


  LATTYP: Found a face centered cubic cell.
 ALAT       =     6.5686239705
  
  Lattice vectors:
  
 A1 = (   0.0000000000,   3.2843119853,   3.2843119853)
 A2 = (   3.2843119853,   0.0000000000,   3.2843119853)
 A3 = (   3.2843119853,   3.2843119853,   0.0000000000)


Analysis of symmetry for initial positions (statically):
=====================================================================
 Subroutine PRICEL returns:
 Original cell was already a primitive cell.
 

 Routine SETGRP: Setting up the symmetry group for a 
 face centered cubic supercell.


 Subroutine GETGRP returns: Found 48 space group operations
 (whereof 48 operations were pure point group operations)
 out of a pool of 48 trial point group operations.


The static configuration has the point symmetry O_h .


Analysis of symmetry for dynamics (positions and initial velocities):
=====================================================================
 Subroutine PRICEL returns:
 Original cell was already a primitive cell.
 

 Routine SETGRP: Setting up the symmetry group for a 
 face centered cubic supercell.


 Subroutine GETGRP returns: Found 48 space group operations
 (whereof 48 operations were pure point group operations)
 out of a pool of 48 trial point group operations.


The dynamic configuration has the point symmetry O_h .


 Subroutine INISYM returns: Found 48 space group operations
 (whereof 48 operations are pure point group operations),
 and found     1 'primitive' translations



--------------------------------------------------------------------------------------------------------




 MACROSCOPIC STATIC DIELECTRIC TENSOR (including local field effects in DFT)
 ------------------------------------------------------
          26.324293    -0.000000     0.000000
          -0.000000    26.324293     0.000000
           0.000000    -0.000000    26.324293
 ------------------------------------------------------


 PIEZOELECTRIC TENSOR  for field in x, y, z        (e  Angst)
          XX          YY          ZZ          XY          YZ          ZX
  --------------------------------------------------------------------------------
  x     0.00541    -0.00510    -0.00510    -0.00000    -0.00000     0.00000
  y     0.00130    -0.00022     0.00130     0.00000    -0.00000    -0.00000
  z     0.00130     0.00130    -0.00021    -0.00000    -0.00000     0.00000

 PIEZOELECTRIC TENSOR  for field in x, y, z        (C/m^2)
          XX          YY          ZZ          XY          YZ          ZX
  --------------------------------------------------------------------------------
  x     0.00000     0.00000     0.00000     0.00000     0.00000     0.00000
  y     0.00000     0.00000     0.00000     0.00000     0.00000     0.00000
  z     0.00000     0.00000     0.00000     0.00000     0.00000     0.00000

 BORN EFFECTIVE CHARGES (in e, cummulative output)
 -------------------------------------------------
 ion    1
    1    -5.72086    -0.00000    -0.00000
    2    -0.00000    -5.72087    -0.00000
    3    -0.00000    -0.00000    -5.72087
 ion    2
    1     5.72086    -0.00000    -0.00000
    2    -0.00000     5.72087    -0.00000
    3    -0.00000    -0.00000     5.72087

 INTERNAL STRAIN TENSOR FOR ION    1 for displacements in x,y,z  (eV/Angst):
          X           Y           Z          XY          YZ          ZX
  --------------------------------------------------------------------------------
  x     0.00000     0.00000     0.00000     0.00000     0.00000     0.00000
  y     0.00000     0.00000     0.00000     0.00000     0.00000     0.00000
  z     0.00000     0.00000     0.00000     0.00000     0.00000     0.00000

 INTERNAL STRAIN TENSOR FOR ION    2 for displacements in x,y,z  (eV/Angst):
          X           Y           Z          XY          YZ          ZX
  --------------------------------------------------------------------------------
  x     0.00000     0.00000     0.00000     0.00000     0.00000     0.00000
  y     0.00000     0.00000     0.00000     0.00000     0.00000     0.00000
  z     0.00000     0.00000     0.00000     0.00000     0.00000     0.00000


--------------------------------------------------------------------------------------------------------



 SECOND DERIVATIVES (NOT SYMMETRIZED)
 ------------------------------------
               1X          1Y          1Z          2X          2Y          2Z 
  1X    -0.195330    0.000000    0.000000    0.195330    0.000000    0.000000
  1Y     0.000000   -0.195330    0.000000    0.000000    0.195330    0.000000
  1Z     0.000000    0.000000   -0.195330    0.000000    0.000000    0.195330
  2X     0.202901    0.000000    0.000000   -0.202901    0.000000    0.000000
  2Y     0.000000    0.202901    0.000000    0.000000   -0.202901    0.000000
  2Z     0.000000    0.000000    0.202901    0.000000    0.000000   -0.202901


 Eigenvectors and eigenvalues of the dynamical matrix
 ----------------------------------------------------


   1 f  =    0.783269 THz     4.921424 2PiTHz   26.127040 cm-1     3.239341 meV
             X         Y         Z           dx          dy          dz
      0.000000  0.000000  0.000000     0.780928   -0.000000    0.000000  
      3.284312  3.284312  3.284312    -0.624621    0.000000    0.000000  

   2 f  =    0.783269 THz     4.921424 2PiTHz   26.127040 cm-1     3.239341 meV
             X         Y         Z           dx          dy          dz
      0.000000  0.000000  0.000000     0.000000    0.513709   -0.588177  
      3.284312  3.284312  3.284312    -0.000000   -0.410887    0.470449  

   3 f  =    0.783269 THz     4.921424 2PiTHz   26.127040 cm-1     3.239341 meV
             X         Y         Z           dx          dy          dz
      0.000000  0.000000  0.000000     0.000000    0.588177    0.513709  
      3.284312  3.284312  3.284312    -0.000000   -0.470449   -0.410887  

   4 f/i=    0.007264 THz     0.045641 2PiTHz    0.242302 cm-1     0.030042 meV
             X         Y         Z           dx          dy          dz
      0.000000  0.000000  0.000000    -0.120067   -0.605972   -0.092370  
      3.284312  3.284312  3.284312    -0.150113   -0.757614   -0.115486  

   5 f/i=    0.007264 THz     0.045641 2PiTHz    0.242302 cm-1     0.030042 meV
             X         Y         Z           dx          dy          dz
      0.000000  0.000000  0.000000    -0.380867   -0.000000    0.495067  
      3.284312  3.284312  3.284312    -0.476176   -0.000000    0.618955  

   6 f/i=    0.007264 THz     0.045641 2PiTHz    0.242302 cm-1     0.030042 meV
             X         Y         Z           dx          dy          dz
      0.000000  0.000000  0.000000    -0.480287    0.151487   -0.369496  
      3.284312  3.284312  3.284312    -0.600476    0.189396   -0.461960  



--------------------------------------------------------------------------------------------------------




 MACROSCOPIC STATIC DIELECTRIC TENSOR IONIC CONTRIBUTION
 ------------------------------------------------------
         419.702939     0.000000     0.000000
           0.000000   419.703667     0.000000
           0.000000     0.000000   419.703602
 ------------------------------------------------------


 ELASTIC MODULI IONIC CONTR (kBar)
 Direction    XX          YY          ZZ          XY          YZ          ZX
 --------------------------------------------------------------------------------
 XX           0.0000      0.0000      0.0000      0.0000      0.0000      0.0000
 YY           0.0000      0.0000      0.0000      0.0000      0.0000      0.0000
 ZZ           0.0000      0.0000      0.0000      0.0000      0.0000      0.0000
 XY           0.0000      0.0000      0.0000      0.0000      0.0000      0.0000
 YZ           0.0000      0.0000      0.0000      0.0000      0.0000      0.0000
 ZX           0.0000      0.0000      0.0000      0.0000      0.0000      0.0000
 --------------------------------------------------------------------------------


 PIEZOELECTRIC TENSOR IONIC CONTR  for field in x, y, z        (C/m^2)
          XX          YY          ZZ          XY          YZ          ZX
  --------------------------------------------------------------------------------
  x     0.00000     0.00000     0.00000     0.00000     0.00000     0.00000
  y     0.00000     0.00000     0.00000     0.00000     0.00000     0.00000
  z     0.00000     0.00000     0.00000     0.00000     0.00000     0.00000


--------------------------------------------------------------------------------------------------------


     LOOP+:  cpu time  818.9231: real time  819.7149
    4ORBIT:  cpu time    0.0000: real time    0.0000
 BZINTS: Fermi energy:  5.022382; 20.000000 electrons
         Band energy:-112.988670;  BLOECHL correction:  0.000000

 total amount of memory used by VASP MPI-rank0   108342. kBytes
=======================================================================

   base      :      30000. kBytes
   nonl-proj :      58718. kBytes
   fftplans  :       4800. kBytes
   grid      :       8192. kBytes
   one-center:         31. kBytes
   wavefun   :       6601. kBytes

  
  
 General timing and accounting informations for this job:
 ========================================================
  
                  Total CPU time used (sec):      821.007
                            User time (sec):      814.396
                          System time (sec):        6.611
                         Elapsed time (sec):      821.854
  
                   Maximum memory used (kb):      276976.
                   Average memory used (kb):           0.
  
                          Minor page faults:       987710
                          Major page faults:            0
                 Voluntary context switches:         5379
