<?xml version="1.0" encoding="ISO-8859-1"?>
<modeling>
 <generator>
  <i name="program" type="string">vasp </i>
  <i name="version" type="string">5.4.4.18Apr17-6-g9f103f2a35  </i>
  <i name="subversion" type="string">(build Mar 20 2018 18:07:30) complex            parallel </i>
  <i name="platform" type="string">LinuxGNU </i>
  <i name="date" type="string">2020 07 02 </i>
  <i name="time" type="string">19:54:11 </i>
 </generator>
 <incar>
  <i type="string" name="SYSTEM"> Pbte</i>
  <i type="int" name="ISTART">     0</i>
  <i type="string" name="PREC">accurate</i>
  <i type="int" name="ICHARG">     2</i>
  <i type="int" name="IBRION">     8</i>
  <i name="EDIFF">      0.00000010</i>
  <i name="EDIFFG">     -0.00100000</i>
  <i type="int" name="NSW">     1</i>
  <i name="ENCUT">    600.00000000</i>
  <i type="int" name="ISMEAR">    -5</i>
  <i type="logical" name="LWAVE"> F  </i>
  <i type="logical" name="LCHARG"> T  </i>
  <v type="int" name="KPOINT_BSE">    -1     0     0     0</v>
  <i type="logical" name="LEPSILON"> T  </i>
  <i type="logical" name="LRPA"> F  </i>
 </incar>
 <structure name="primitive_cell" >
  <crystal>
   <varray name="basis" >
    <v>       0.00000000       3.28431199       3.28431199 </v>
    <v>       3.28431199       0.00000000       3.28431199 </v>
    <v>       3.28431199       3.28431199       0.00000000 </v>
   </varray>
   <i name="volume">     70.85381045 </i>
   <varray name="rec_basis" >
    <v>      -0.15223889       0.15223889       0.15223889 </v>
    <v>       0.15223889      -0.15223889       0.15223889 </v>
    <v>       0.15223889       0.15223889      -0.15223889 </v>
   </varray>
  </crystal>
  <varray name="positions" >
   <v>       0.00000000       0.00000000       0.00000000 </v>
   <v>      -0.50000000      -0.50000000      -0.50000000 </v>
  </varray>
 </structure>
 <varray name="primitive_index" >
  <v type="int" >        1 </v>
  <v type="int" >        2 </v>
 </varray>
 <kpoints>
  <generation param="Gamma">
   <v type="int" name="divisions">      13       13       13 </v>
   <v name="usershift">      0.00000000       0.00000000       0.00000000 </v>
   <v name="genvec1">      0.07692308       0.00000000       0.00000000 </v>
   <v name="genvec2">      0.00000000       0.07692308       0.00000000 </v>
   <v name="genvec3">      0.00000000       0.00000000       0.07692308 </v>
   <v name="shift">      0.00000000       0.00000000       0.00000000 </v>
  </generation>
  <varray name="kpointlist" >
   <v>       0.00000000       0.00000000       0.00000000 </v>
   <v>       0.07692308       0.00000000       0.00000000 </v>
   <v>       0.15384615       0.00000000       0.00000000 </v>
   <v>       0.23076923       0.00000000       0.00000000 </v>
   <v>       0.30769231       0.00000000       0.00000000 </v>
   <v>       0.38461538       0.00000000       0.00000000 </v>
   <v>       0.46153846       0.00000000       0.00000000 </v>
   <v>       0.07692308       0.07692308       0.00000000 </v>
   <v>       0.15384615       0.07692308       0.00000000 </v>
   <v>       0.23076923       0.07692308       0.00000000 </v>
   <v>       0.30769231       0.07692308       0.00000000 </v>
   <v>       0.38461538       0.07692308       0.00000000 </v>
   <v>       0.46153846       0.07692308       0.00000000 </v>
   <v>      -0.46153846       0.07692308       0.00000000 </v>
   <v>      -0.38461538       0.07692308       0.00000000 </v>
   <v>      -0.30769231       0.07692308       0.00000000 </v>
   <v>      -0.23076923       0.07692308       0.00000000 </v>
   <v>      -0.15384615       0.07692308       0.00000000 </v>
   <v>      -0.07692308       0.07692308       0.00000000 </v>
   <v>       0.15384615       0.15384615       0.00000000 </v>
   <v>       0.23076923       0.15384615       0.00000000 </v>
   <v>       0.30769231       0.15384615       0.00000000 </v>
   <v>       0.38461538       0.15384615       0.00000000 </v>
   <v>       0.46153846       0.15384615       0.00000000 </v>
   <v>      -0.46153846       0.15384615       0.00000000 </v>
   <v>      -0.38461538       0.15384615       0.00000000 </v>
   <v>      -0.30769231       0.15384615       0.00000000 </v>
   <v>      -0.23076923       0.15384615       0.00000000 </v>
   <v>      -0.15384615       0.15384615       0.00000000 </v>
   <v>       0.23076923       0.23076923       0.00000000 </v>
   <v>       0.30769231       0.23076923       0.00000000 </v>
   <v>       0.38461538       0.23076923       0.00000000 </v>
   <v>       0.46153846       0.23076923       0.00000000 </v>
   <v>      -0.46153846       0.23076923       0.00000000 </v>
   <v>      -0.38461538       0.23076923       0.00000000 </v>
   <v>      -0.30769231       0.23076923       0.00000000 </v>
   <v>      -0.23076923       0.23076923       0.00000000 </v>
   <v>       0.30769231       0.30769231       0.00000000 </v>
   <v>       0.38461538       0.30769231       0.00000000 </v>
   <v>       0.46153846       0.30769231       0.00000000 </v>
   <v>      -0.46153846       0.30769231       0.00000000 </v>
   <v>      -0.38461538       0.30769231       0.00000000 </v>
   <v>      -0.30769231       0.30769231       0.00000000 </v>
   <v>       0.38461538       0.38461538       0.00000000 </v>
   <v>       0.46153846       0.38461538       0.00000000 </v>
   <v>      -0.46153846       0.38461538       0.00000000 </v>
   <v>      -0.38461538       0.38461538       0.00000000 </v>
   <v>       0.46153846       0.46153846       0.00000000 </v>
   <v>      -0.46153846       0.46153846       0.00000000 </v>
   <v>       0.23076923       0.15384615       0.07692308 </v>
   <v>       0.30769231       0.15384615       0.07692308 </v>
   <v>       0.38461538       0.15384615       0.07692308 </v>
   <v>       0.46153846       0.15384615       0.07692308 </v>
   <v>      -0.46153846       0.15384615       0.07692308 </v>
   <v>       0.30769231       0.23076923       0.07692308 </v>
   <v>       0.38461538       0.23076923       0.07692308 </v>
   <v>       0.46153846       0.23076923       0.07692308 </v>
   <v>      -0.46153846       0.23076923       0.07692308 </v>
   <v>      -0.38461538       0.23076923       0.07692308 </v>
   <v>      -0.30769231       0.23076923       0.07692308 </v>
   <v>      -0.23076923       0.23076923       0.07692308 </v>
   <v>      -0.15384615       0.23076923       0.07692308 </v>
   <v>       0.38461538       0.30769231       0.07692308 </v>
   <v>       0.46153846       0.30769231       0.07692308 </v>
   <v>      -0.46153846       0.30769231       0.07692308 </v>
   <v>      -0.38461538       0.30769231       0.07692308 </v>
   <v>      -0.30769231       0.30769231       0.07692308 </v>
   <v>      -0.23076923       0.30769231       0.07692308 </v>
   <v>       0.46153846       0.38461538       0.07692308 </v>
   <v>      -0.46153846       0.38461538       0.07692308 </v>
   <v>      -0.38461538       0.38461538       0.07692308 </v>
   <v>      -0.30769231       0.38461538       0.07692308 </v>
   <v>      -0.46153846       0.46153846       0.07692308 </v>
   <v>      -0.38461538       0.46153846       0.07692308 </v>
   <v>       0.46153846       0.30769231       0.15384615 </v>
   <v>      -0.46153846       0.30769231       0.15384615 </v>
   <v>      -0.38461538       0.30769231       0.15384615 </v>
   <v>      -0.46153846       0.38461538       0.15384615 </v>
   <v>      -0.38461538       0.38461538       0.15384615 </v>
   <v>      -0.30769231       0.38461538       0.15384615 </v>
   <v>      -0.23076923       0.38461538       0.15384615 </v>
   <v>      -0.38461538       0.46153846       0.15384615 </v>
   <v>      -0.30769231       0.46153846       0.15384615 </v>
   <v>      -0.30769231       0.46153846       0.23076923 </v>
  </varray>
  <varray name="weights" >
   <v>       0.00045517 </v>
   <v>       0.00364133 </v>
   <v>       0.00364133 </v>
   <v>       0.00364133 </v>
   <v>       0.00364133 </v>
   <v>       0.00364133 </v>
   <v>       0.00364133 </v>
   <v>       0.00273100 </v>
   <v>       0.01092399 </v>
   <v>       0.01092399 </v>
   <v>       0.01092399 </v>
   <v>       0.01092399 </v>
   <v>       0.01092399 </v>
   <v>       0.01092399 </v>
   <v>       0.01092399 </v>
   <v>       0.01092399 </v>
   <v>       0.01092399 </v>
   <v>       0.01092399 </v>
   <v>       0.00546199 </v>
   <v>       0.00273100 </v>
   <v>       0.01092399 </v>
   <v>       0.01092399 </v>
   <v>       0.01092399 </v>
   <v>       0.01092399 </v>
   <v>       0.01092399 </v>
   <v>       0.01092399 </v>
   <v>       0.01092399 </v>
   <v>       0.01092399 </v>
   <v>       0.00546199 </v>
   <v>       0.00273100 </v>
   <v>       0.01092399 </v>
   <v>       0.01092399 </v>
   <v>       0.01092399 </v>
   <v>       0.01092399 </v>
   <v>       0.01092399 </v>
   <v>       0.01092399 </v>
   <v>       0.00546199 </v>
   <v>       0.00273100 </v>
   <v>       0.01092399 </v>
   <v>       0.01092399 </v>
   <v>       0.01092399 </v>
   <v>       0.01092399 </v>
   <v>       0.00546199 </v>
   <v>       0.00273100 </v>
   <v>       0.01092399 </v>
   <v>       0.01092399 </v>
   <v>       0.00546199 </v>
   <v>       0.00273100 </v>
   <v>       0.00546199 </v>
   <v>       0.01092399 </v>
   <v>       0.02184797 </v>
   <v>       0.02184797 </v>
   <v>       0.02184797 </v>
   <v>       0.02184797 </v>
   <v>       0.01092399 </v>
   <v>       0.02184797 </v>
   <v>       0.02184797 </v>
   <v>       0.02184797 </v>
   <v>       0.02184797 </v>
   <v>       0.02184797 </v>
   <v>       0.02184797 </v>
   <v>       0.01092399 </v>
   <v>       0.01092399 </v>
   <v>       0.02184797 </v>
   <v>       0.02184797 </v>
   <v>       0.02184797 </v>
   <v>       0.02184797 </v>
   <v>       0.01092399 </v>
   <v>       0.01092399 </v>
   <v>       0.02184797 </v>
   <v>       0.02184797 </v>
   <v>       0.01092399 </v>
   <v>       0.01092399 </v>
   <v>       0.01092399 </v>
   <v>       0.01092399 </v>
   <v>       0.02184797 </v>
   <v>       0.02184797 </v>
   <v>       0.01092399 </v>
   <v>       0.02184797 </v>
   <v>       0.02184797 </v>
   <v>       0.01092399 </v>
   <v>       0.01092399 </v>
   <v>       0.01092399 </v>
   <v>       0.01092399 </v>
  </varray>
  <varray name="tetrahedronlist"  type="int" >
   <v type="int" >       24        1        2        2        8 </v>
   <v type="int" >       48        2        8        9       19 </v>
   <v type="int" >       48        2        3        9       19 </v>
   <v type="int" >       24        2        2        8       19 </v>
   <v type="int" >       48        3        9       10       18 </v>
   <v type="int" >       48        3        4       10       18 </v>
   <v type="int" >       48        3        9       18       19 </v>
   <v type="int" >       48        4       10       11       17 </v>
   <v type="int" >       48        4        5       11       17 </v>
   <v type="int" >       48        4       10       17       18 </v>
   <v type="int" >       48        5       11       12       16 </v>
   <v type="int" >       48        5        6       12       16 </v>
   <v type="int" >       48        5       11       16       17 </v>
   <v type="int" >       48        6       12       13       15 </v>
   <v type="int" >       48        6        7       13       15 </v>
   <v type="int" >       48        6       12       15       16 </v>
   <v type="int" >       48        7       13       14       14 </v>
   <v type="int" >       24        7        7       14       14 </v>
   <v type="int" >       48        7       13       14       15 </v>
   <v type="int" >       24        8        9        9       20 </v>
   <v type="int" >       24        8        9        9       19 </v>
   <v type="int" >       48        9       20       21       50 </v>
   <v type="int" >       48        9       10       21       50 </v>
   <v type="int" >       48        9       10       18       50 </v>
   <v type="int" >       24        9        9       20       50 </v>
   <v type="int" >       24        9        9       19       50 </v>
   <v type="int" >       48        9       18       19       50 </v>
   <v type="int" >       48       10       21       22       51 </v>
   <v type="int" >       48       10       11       22       51 </v>
   <v type="int" >       48       10       11       17       51 </v>
   <v type="int" >       48       10       21       50       51 </v>
   <v type="int" >       48       10       18       50       51 </v>
   <v type="int" >       48       10       17       18       51 </v>
   <v type="int" >       48       11       22       23       52 </v>
   <v type="int" >       48       11       12       23       52 </v>
   <v type="int" >       48       11       12       16       52 </v>
   <v type="int" >       48       11       22       51       52 </v>
   <v type="int" >       48       11       17       51       52 </v>
   <v type="int" >       48       11       16       17       52 </v>
   <v type="int" >       48       12       23       24       53 </v>
   <v type="int" >       48       12       13       24       53 </v>
   <v type="int" >       48       12       13       15       53 </v>
   <v type="int" >       48       12       23       52       53 </v>
   <v type="int" >       48       12       16       52       53 </v>
   <v type="int" >       48       12       15       16       53 </v>
   <v type="int" >       48       13       24       25       54 </v>
   <v type="int" >       48       13       14       25       54 </v>
   <v type="int" >       48       13       14       14       54 </v>
   <v type="int" >       48       13       24       53       54 </v>
   <v type="int" >       48       13       15       53       54 </v>
   <v type="int" >       48       13       14       15       54 </v>
   <v type="int" >       48       14       25       26       54 </v>
   <v type="int" >       48       14       15       26       54 </v>
   <v type="int" >       48       14       25       54       54 </v>
   <v type="int" >       24       14       14       54       54 </v>
   <v type="int" >       48       15       26       27       53 </v>
   <v type="int" >       48       15       16       27       53 </v>
   <v type="int" >       48       15       26       53       54 </v>
   <v type="int" >       48       16       27       28       52 </v>
   <v type="int" >       48       16       17       28       52 </v>
   <v type="int" >       48       16       27       52       53 </v>
   <v type="int" >       48       17       28       29       51 </v>
   <v type="int" >       48       17       18       29       51 </v>
   <v type="int" >       48       17       28       51       52 </v>
   <v type="int" >       24       18       18       29       50 </v>
   <v type="int" >       24       18       18       19       50 </v>
   <v type="int" >       48       18       29       50       51 </v>
   <v type="int" >       24       20       21       21       30 </v>
   <v type="int" >       24       20       21       21       50 </v>
   <v type="int" >       48       21       30       31       55 </v>
   <v type="int" >       48       21       22       31       55 </v>
   <v type="int" >       48       21       22       51       55 </v>
   <v type="int" >       24       21       21       30       55 </v>
   <v type="int" >       24       21       21       50       55 </v>
   <v type="int" >       48       21       50       51       55 </v>
   <v type="int" >       48       22       31       32       56 </v>
   <v type="int" >       48       22       23       32       56 </v>
   <v type="int" >       48       22       23       52       56 </v>
   <v type="int" >       48       22       31       55       56 </v>
   <v type="int" >       48       22       51       55       56 </v>
   <v type="int" >       48       22       51       52       56 </v>
   <v type="int" >       48       23       32       33       57 </v>
   <v type="int" >       48       23       24       33       57 </v>
   <v type="int" >       48       23       24       53       57 </v>
   <v type="int" >       48       23       32       56       57 </v>
   <v type="int" >       48       23       52       56       57 </v>
   <v type="int" >       48       23       52       53       57 </v>
   <v type="int" >       48       24       33       34       58 </v>
   <v type="int" >       48       24       25       34       58 </v>
   <v type="int" >       48       24       25       54       58 </v>
   <v type="int" >       48       24       33       57       58 </v>
   <v type="int" >       48       24       53       57       58 </v>
   <v type="int" >       48       24       53       54       58 </v>
   <v type="int" >       48       25       34       35       59 </v>
   <v type="int" >       48       25       26       35       59 </v>
   <v type="int" >       48       25       26       54       59 </v>
   <v type="int" >       48       25       34       58       59 </v>
   <v type="int" >       48       25       54       58       59 </v>
   <v type="int" >       48       25       54       54       59 </v>
   <v type="int" >       48       26       35       36       60 </v>
   <v type="int" >       48       26       27       36       60 </v>
   <v type="int" >       48       26       27       53       60 </v>
   <v type="int" >       48       26       35       59       60 </v>
   <v type="int" >       48       26       54       59       60 </v>
   <v type="int" >       48       26       53       54       60 </v>
   <v type="int" >       48       27       36       37       61 </v>
   <v type="int" >       48       27       28       37       61 </v>
   <v type="int" >       48       27       28       52       61 </v>
   <v type="int" >       48       27       36       60       61 </v>
   <v type="int" >       48       27       53       60       61 </v>
   <v type="int" >       48       27       52       53       61 </v>
   <v type="int" >       24       28       28       37       62 </v>
   <v type="int" >       24       28       28       29       62 </v>
   <v type="int" >       48       28       29       51       62 </v>
   <v type="int" >       48       28       37       61       62 </v>
   <v type="int" >       48       28       52       61       62 </v>
   <v type="int" >       48       28       51       52       62 </v>
   <v type="int" >       24       29       51       51       62 </v>
   <v type="int" >       24       29       50       51       51 </v>
   <v type="int" >       24       30       31       31       38 </v>
   <v type="int" >       24       30       31       31       55 </v>
   <v type="int" >       48       31       38       39       63 </v>
   <v type="int" >       48       31       32       39       63 </v>
   <v type="int" >       48       31       32       56       63 </v>
   <v type="int" >       24       31       31       38       63 </v>
   <v type="int" >       24       31       31       55       63 </v>
   <v type="int" >       48       31       55       56       63 </v>
   <v type="int" >       48       32       39       40       64 </v>
   <v type="int" >       48       32       33       40       64 </v>
   <v type="int" >       48       32       33       57       64 </v>
   <v type="int" >       48       32       39       63       64 </v>
   <v type="int" >       48       32       56       63       64 </v>
   <v type="int" >       48       32       56       57       64 </v>
   <v type="int" >       48       33       40       41       65 </v>
   <v type="int" >       48       33       34       41       65 </v>
   <v type="int" >       48       33       34       58       65 </v>
   <v type="int" >       48       33       40       64       65 </v>
   <v type="int" >       48       33       57       64       65 </v>
   <v type="int" >       48       33       57       58       65 </v>
   <v type="int" >       48       34       41       42       66 </v>
   <v type="int" >       48       34       35       42       66 </v>
   <v type="int" >       48       34       35       59       66 </v>
   <v type="int" >       48       34       41       65       66 </v>
   <v type="int" >       48       34       58       65       66 </v>
   <v type="int" >       48       34       58       59       66 </v>
   <v type="int" >       48       35       42       43       67 </v>
   <v type="int" >       48       35       36       43       67 </v>
   <v type="int" >       48       35       36       60       67 </v>
   <v type="int" >       48       35       42       66       67 </v>
   <v type="int" >       48       35       59       66       67 </v>
   <v type="int" >       48       35       59       60       67 </v>
   <v type="int" >       24       36       36       43       68 </v>
   <v type="int" >       24       36       36       37       68 </v>
   <v type="int" >       48       36       37       61       68 </v>
   <v type="int" >       48       36       43       67       68 </v>
   <v type="int" >       48       36       60       67       68 </v>
   <v type="int" >       48       36       60       61       68 </v>
   <v type="int" >       24       37       61       61       68 </v>
   <v type="int" >       24       37       61       61       62 </v>
   <v type="int" >       24       38       39       39       44 </v>
   <v type="int" >       24       38       39       39       63 </v>
   <v type="int" >       48       39       44       45       69 </v>
   <v type="int" >       48       39       40       45       69 </v>
   <v type="int" >       48       39       40       64       69 </v>
   <v type="int" >       24       39       39       44       69 </v>
   <v type="int" >       24       39       39       63       69 </v>
   <v type="int" >       48       39       63       64       69 </v>
   <v type="int" >       48       40       45       46       70 </v>
   <v type="int" >       48       40       41       46       70 </v>
   <v type="int" >       48       40       41       65       70 </v>
   <v type="int" >       48       40       45       69       70 </v>
   <v type="int" >       48       40       64       69       70 </v>
   <v type="int" >       48       40       64       65       70 </v>
   <v type="int" >       48       41       46       47       71 </v>
   <v type="int" >       48       41       42       47       71 </v>
   <v type="int" >       48       41       42       66       71 </v>
   <v type="int" >       48       41       46       70       71 </v>
   <v type="int" >       48       41       65       70       71 </v>
   <v type="int" >       48       41       65       66       71 </v>
   <v type="int" >       24       42       42       47       72 </v>
   <v type="int" >       24       42       42       43       72 </v>
   <v type="int" >       48       42       43       67       72 </v>
   <v type="int" >       48       42       47       71       72 </v>
   <v type="int" >       48       42       66       71       72 </v>
   <v type="int" >       48       42       66       67       72 </v>
   <v type="int" >       24       43       67       67       72 </v>
   <v type="int" >       24       43       67       67       68 </v>
   <v type="int" >       24       44       45       45       48 </v>
   <v type="int" >       24       44       45       45       69 </v>
   <v type="int" >       48       45       48       49       73 </v>
   <v type="int" >       48       45       46       49       73 </v>
   <v type="int" >       48       45       46       70       73 </v>
   <v type="int" >       24       45       45       48       73 </v>
   <v type="int" >       24       45       45       69       73 </v>
   <v type="int" >       48       45       69       70       73 </v>
   <v type="int" >       24       46       46       49       74 </v>
   <v type="int" >       24       46       46       47       74 </v>
   <v type="int" >       48       46       47       71       74 </v>
   <v type="int" >       48       46       49       73       74 </v>
   <v type="int" >       48       46       70       73       74 </v>
   <v type="int" >       48       46       70       71       74 </v>
   <v type="int" >       24       47       71       71       74 </v>
   <v type="int" >       24       47       71       71       72 </v>
   <v type="int" >       12       48       48       49       49 </v>
   <v type="int" >       24       48       49       49       73 </v>
   <v type="int" >       12       49       49       73       73 </v>
   <v type="int" >       24       49       73       73       74 </v>
   <v type="int" >       24       50       51       51       55 </v>
   <v type="int" >       48       51       55       56       62 </v>
   <v type="int" >       48       51       52       56       62 </v>
   <v type="int" >       24       51       51       55       62 </v>
   <v type="int" >       48       52       56       57       61 </v>
   <v type="int" >       48       52       53       57       61 </v>
   <v type="int" >       48       52       56       61       62 </v>
   <v type="int" >       48       53       57       58       60 </v>
   <v type="int" >       48       53       54       58       60 </v>
   <v type="int" >       48       53       57       60       61 </v>
   <v type="int" >       48       54       58       59       59 </v>
   <v type="int" >       24       54       54       59       59 </v>
   <v type="int" >       48       54       58       59       60 </v>
   <v type="int" >       24       55       56       56       63 </v>
   <v type="int" >       24       55       56       56       62 </v>
   <v type="int" >       48       56       63       64       75 </v>
   <v type="int" >       48       56       57       64       75 </v>
   <v type="int" >       48       56       57       61       75 </v>
   <v type="int" >       24       56       56       63       75 </v>
   <v type="int" >       24       56       56       62       75 </v>
   <v type="int" >       48       56       61       62       75 </v>
   <v type="int" >       48       57       64       65       76 </v>
   <v type="int" >       48       57       58       65       76 </v>
   <v type="int" >       48       57       58       60       76 </v>
   <v type="int" >       48       57       64       75       76 </v>
   <v type="int" >       48       57       61       75       76 </v>
   <v type="int" >       48       57       60       61       76 </v>
   <v type="int" >       48       58       65       66       77 </v>
   <v type="int" >       48       58       59       66       77 </v>
   <v type="int" >       48       58       59       59       77 </v>
   <v type="int" >       48       58       65       76       77 </v>
   <v type="int" >       48       58       60       76       77 </v>
   <v type="int" >       48       58       59       60       77 </v>
   <v type="int" >       48       59       66       67       77 </v>
   <v type="int" >       48       59       60       67       77 </v>
   <v type="int" >       48       59       66       77       77 </v>
   <v type="int" >       24       59       59       77       77 </v>
   <v type="int" >       48       60       67       68       76 </v>
   <v type="int" >       48       60       61       68       76 </v>
   <v type="int" >       48       60       67       76       77 </v>
   <v type="int" >       24       61       61       68       75 </v>
   <v type="int" >       24       61       61       62       75 </v>
   <v type="int" >       48       61       68       75       76 </v>
   <v type="int" >       24       63       64       64       69 </v>
   <v type="int" >       24       63       64       64       75 </v>
   <v type="int" >       48       64       69       70       78 </v>
   <v type="int" >       48       64       65       70       78 </v>
   <v type="int" >       48       64       65       76       78 </v>
   <v type="int" >       24       64       64       69       78 </v>
   <v type="int" >       24       64       64       75       78 </v>
   <v type="int" >       48       64       75       76       78 </v>
   <v type="int" >       48       65       70       71       79 </v>
   <v type="int" >       48       65       66       71       79 </v>
   <v type="int" >       48       65       66       77       79 </v>
   <v type="int" >       48       65       70       78       79 </v>
   <v type="int" >       48       65       76       78       79 </v>
   <v type="int" >       48       65       76       77       79 </v>
   <v type="int" >       48       66       71       72       80 </v>
   <v type="int" >       48       66       67       72       80 </v>
   <v type="int" >       48       66       67       77       80 </v>
   <v type="int" >       48       66       71       79       80 </v>
   <v type="int" >       48       66       77       79       80 </v>
   <v type="int" >       48       66       77       77       80 </v>
   <v type="int" >       24       67       67       72       81 </v>
   <v type="int" >       24       67       67       68       81 </v>
   <v type="int" >       48       67       68       76       81 </v>
   <v type="int" >       48       67       72       80       81 </v>
   <v type="int" >       48       67       77       80       81 </v>
   <v type="int" >       48       67       76       77       81 </v>
   <v type="int" >       24       68       76       76       81 </v>
   <v type="int" >       24       68       75       76       76 </v>
   <v type="int" >       24       69       70       70       73 </v>
   <v type="int" >       24       69       70       70       78 </v>
   <v type="int" >       48       70       73       74       82 </v>
   <v type="int" >       48       70       71       74       82 </v>
   <v type="int" >       48       70       71       79       82 </v>
   <v type="int" >       24       70       70       73       82 </v>
   <v type="int" >       24       70       70       78       82 </v>
   <v type="int" >       48       70       78       79       82 </v>
   <v type="int" >       24       71       71       74       83 </v>
   <v type="int" >       24       71       71       72       83 </v>
   <v type="int" >       48       71       72       80       83 </v>
   <v type="int" >       48       71       74       82       83 </v>
   <v type="int" >       48       71       79       82       83 </v>
   <v type="int" >       48       71       79       80       83 </v>
   <v type="int" >       24       72       80       80       83 </v>
   <v type="int" >       24       72       80       80       81 </v>
   <v type="int" >       12       73       73       74       74 </v>
   <v type="int" >       24       73       74       74       82 </v>
   <v type="int" >       12       74       74       82       82 </v>
   <v type="int" >       24       74       82       82       83 </v>
   <v type="int" >       24       75       76       76       78 </v>
   <v type="int" >       48       76       78       79       81 </v>
   <v type="int" >       48       76       77       79       81 </v>
   <v type="int" >       24       76       76       78       81 </v>
   <v type="int" >       48       77       79       80       80 </v>
   <v type="int" >       24       77       77       80       80 </v>
   <v type="int" >       48       77       79       80       81 </v>
   <v type="int" >       24       78       79       79       82 </v>
   <v type="int" >       24       78       79       79       81 </v>
   <v type="int" >       48       79       82       83       84 </v>
   <v type="int" >       48       79       80       83       84 </v>
   <v type="int" >       48       79       80       80       84 </v>
   <v type="int" >       24       79       79       82       84 </v>
   <v type="int" >       24       79       79       81       84 </v>
   <v type="int" >       48       79       80       81       84 </v>
   <v type="int" >       24       80       80       83       84 </v>
   <v type="int" >       24       80       80       81       84 </v>
   <v type="int" >       48       80       83       84       84 </v>
   <v type="int" >       24       80       80       84       84 </v>
   <v type="int" >       12       82       82       83       83 </v>
   <v type="int" >       24       82       83       83       84 </v>
   <v type="int" >       12       83       83       84       84 </v>
   <v type="int" >       24       83       84       84       84 </v>
   <v type="int" >        6       84       84       84       84 </v>
  </varray>
  <i name="volumeweight">      0.00007586 </i>
 </kpoints>
 <parameters>
  <separator name="general" >
   <i type="string" name="SYSTEM">Pbte</i>
   <i type="logical" name="LCOMPAT"> F  </i>
  </separator>
  <separator name="electronic" >
   <i type="string" name="PREC">accura</i>
   <i name="ENMAX">    600.00000000</i>
   <i name="ENAUG">    391.91400000</i>
   <i name="EDIFF">      0.00000010</i>
   <i type="int" name="IALGO">    38</i>
   <i type="int" name="IWAVPR">    11</i>
   <i type="int" name="NBANDS">    16</i>
   <i name="NELECT">     20.00000000</i>
   <i type="int" name="TURBO">     0</i>
   <i type="int" name="IRESTART">     0</i>
   <i type="int" name="NREBOOT">     0</i>
   <i type="int" name="NMIN">     0</i>
   <i name="EREF">      0.00000000</i>
   <separator name="electronic smearing" >
    <i type="int" name="ISMEAR">    -5</i>
    <i name="SIGMA">      0.20000000</i>
    <i name="KSPACING">      0.50000000</i>
    <i type="logical" name="KGAMMA"> T  </i>
   </separator>
   <separator name="electronic projectors" >
    <i type="logical" name="LREAL"> F  </i>
    <v name="ROPT">      0.00000000      0.00000000</v>
    <i type="int" name="LMAXPAW">  -100</i>
    <i type="int" name="LMAXMIX">     2</i>
    <i type="logical" name="NLSPLINE"> F  </i>
   </separator>
   <separator name="electronic startup" >
    <i type="int" name="ISTART">     0</i>
    <i type="int" name="ICHARG">     2</i>
    <i type="int" name="INIWAV">     1</i>
   </separator>
   <separator name="electronic spin" >
    <i type="int" name="ISPIN">     1</i>
    <i type="logical" name="LNONCOLLINEAR"> F  </i>
    <v name="MAGMOM">      1.00000000      1.00000000</v>
    <i name="NUPDOWN">     -1.00000000</i>
    <i type="logical" name="LSORBIT"> F  </i>
    <v name="SAXIS">      0.00000000      0.00000000      1.00000000</v>
    <i type="logical" name="LSPIRAL"> F  </i>
    <v name="QSPIRAL">      0.00000000      0.00000000      0.00000000</v>
    <i type="logical" name="LZEROZ"> F  </i>
   </separator>
   <separator name="electronic exchange-correlation" >
    <i type="logical" name="LASPH"> F  </i>
    <i type="logical" name="LMETAGGA"> F  </i>
   </separator>
   <separator name="electronic convergence" >
    <i type="int" name="NELM">    60</i>
    <i type="int" name="NELMDL">    -5</i>
    <i type="int" name="NELMIN">     2</i>
    <i name="ENINI">    600.00000000</i>
    <separator name="electronic convergence detail" >
     <i type="logical" name="LDIAG"> T  </i>
     <i type="logical" name="LSUBROT"> F  </i>
     <i name="WEIMIN">      0.00100000</i>
     <i name="EBREAK">      0.00000000</i>
     <i name="DEPER">      0.30000000</i>
     <i type="int" name="NRMM">     4</i>
     <i name="TIME">      0.40000000</i>
    </separator>
   </separator>
   <separator name="electronic mixer" >
    <i name="AMIX">      0.40000000</i>
    <i name="BMIX">      1.00000000</i>
    <i name="AMIN">      0.10000000</i>
    <i name="AMIX_MAG">      1.60000000</i>
    <i name="BMIX_MAG">      1.00000000</i>
    <separator name="electronic mixer details" >
     <i type="int" name="IMIX">     4</i>
     <i type="logical" name="MIXFIRST"> F  </i>
     <i type="int" name="MAXMIX">   -45</i>
     <i name="WC">    100.00000000</i>
     <i type="int" name="INIMIX">     1</i>
     <i type="int" name="MIXPRE">     1</i>
     <i type="int" name="MREMOVE">     5</i>
    </separator>
   </separator>
   <separator name="electronic dipolcorrection" >
    <i type="logical" name="LDIPOL"> F  </i>
    <i type="logical" name="LMONO"> F  </i>
    <i type="int" name="IDIPOL">     0</i>
    <i name="EPSILON">      1.00000000</i>
    <v name="DIPOL">   -100.00000000   -100.00000000   -100.00000000</v>
    <i name="EFIELD">      0.00000000</i>
   </separator>
  </separator>
  <separator name="grids" >
   <i type="int" name="NGX">    40</i>
   <i type="int" name="NGY">    40</i>
   <i type="int" name="NGZ">    40</i>
   <i type="int" name="NGXF">    80</i>
   <i type="int" name="NGYF">    80</i>
   <i type="int" name="NGZF">    80</i>
   <i type="logical" name="ADDGRID"> F  </i>
  </separator>
  <separator name="ionic" >
   <i type="int" name="NSW">     1</i>
   <i type="int" name="IBRION">     8</i>
   <i type="int" name="MDALGO">     0</i>
   <i type="int" name="ISIF">     2</i>
   <i name="PSTRESS">      0.00000000</i>
   <i name="EDIFFG">     -0.00100000</i>
   <i type="int" name="NFREE">     0</i>
   <i name="POTIM">      0.50000000</i>
   <i name="SMASS">     -3.00000000</i>
   <i name="SCALEE">      1.00000000</i>
  </separator>
  <separator name="ionic md" >
   <i name="TEBEG">      0.00010000</i>
   <i name="TEEND">      0.00010000</i>
   <i type="int" name="NBLOCK">     1</i>
   <i type="int" name="KBLOCK">     1</i>
   <i type="int" name="NPACO">   256</i>
   <i name="APACO">     16.00000000</i>
  </separator>
  <separator name="symmetry" >
   <i type="int" name="ISYM">     2</i>
   <i name="SYMPREC">      0.00001000</i>
  </separator>
  <separator name="dos" >
   <i type="int" name="LORBIT">     0</i>
   <v name="RWIGS">     -1.00000000     -1.00000000</v>
   <i type="int" name="NEDOS">   301</i>
   <i name="EMIN">     10.00000000</i>
   <i name="EMAX">    -10.00000000</i>
   <i name="EFERMI">      0.00000000</i>
  </separator>
  <separator name="writing" >
   <i type="int" name="NWRITE">     2</i>
   <i type="logical" name="LWAVE"> F  </i>
   <i type="logical" name="LDOWNSAMPLE"> F  </i>
   <i type="logical" name="LCHARG"> T  </i>
   <i type="logical" name="LPARD"> F  </i>
   <i type="logical" name="LVTOT"> F  </i>
   <i type="logical" name="LVHAR"> F  </i>
   <i type="logical" name="LELF"> F  </i>
   <i type="logical" name="LOPTICS"> F  </i>
   <v name="STM">      0.00000000      0.00000000      0.00000000      0.00000000      0.00000000      0.00000000      0.00000000</v>
  </separator>
  <separator name="performance" >
   <i type="int" name="NPAR">     8</i>
   <i type="int" name="NSIM">     4</i>
   <i type="int" name="NBLK">    -1</i>
   <i type="logical" name="LPLANE"> T  </i>
   <i type="logical" name="LSCALAPACK"> T  </i>
   <i type="logical" name="LSCAAWARE"> F  </i>
   <i type="logical" name="LSCALU"> F  </i>
   <i type="logical" name="LASYNC"> F  </i>
   <i type="logical" name="LORBITALREAL"> F  </i>
  </separator>
  <separator name="miscellaneous" >
   <i type="int" name="IDIOT">     3</i>
   <i type="int" name="ISPECIAL">     0</i>
   <i type="logical" name="LMUSIC"> F  </i>
   <v name="POMASS">    127.60000000    207.20000000</v>
   <v name="DARWINR">      0.00000000      0.00000000</v>
   <v name="DARWINV">      1.00000000      1.00000000</v>
   <i type="logical" name="LCORR"> T  </i>
  </separator>
  <i type="logical" name="GGA_COMPAT"> T  </i>
  <i type="logical" name="LBERRY"> F  </i>
  <i type="int" name="ICORELEVEL">     0</i>
  <i type="logical" name="LDAU"> F  </i>
  <i type="int" name="I_CONSTRAINED_M">     0</i>
  <separator name="electronic exchange-correlation" >
   <i type="string" name="GGA">--</i>
   <i type="int" name="VOSKOWN">     0</i>
   <i type="logical" name="LHFCALC"> F  </i>
   <i type="string" name="PRECFOCK"></i>
   <i type="logical" name="LSYMGRAD"> F  </i>
   <i type="logical" name="LHFONE"> F  </i>
   <i type="logical" name="LRHFCALC"> F  </i>
   <i type="logical" name="LTHOMAS"> F  </i>
   <i type="logical" name="LMODELHF"> F  </i>
   <i name="ENCUT4O">     -1.00000000</i>
   <i type="int" name="EXXOEP">     0</i>
   <i type="int" name="FOURORBIT">     0</i>
   <i name="AEXX">      0.00000000</i>
   <i name="HFALPHA">      0.00000000</i>
   <i name="MCALPHA">      0.00000000</i>
   <i name="ALDAX">      1.00000000</i>
   <i name="AGGAX">      1.00000000</i>
   <i name="ALDAC">      1.00000000</i>
   <i name="AGGAC">      1.00000000</i>
   <i type="int" name="NKREDX">     1</i>
   <i type="int" name="NKREDY">     1</i>
   <i type="int" name="NKREDZ">     1</i>
   <i type="logical" name="SHIFTRED"> F  </i>
   <i type="logical" name="ODDONLY"> F  </i>
   <i type="logical" name="EVENONLY"> F  </i>
   <i type="int" name="LMAXFOCK">     0</i>
   <i type="int" name="NMAXFOCKAE">     0</i>
   <i type="logical" name="LFOCKAEDFT"> F  </i>
   <i name="HFSCREEN">      0.00000000</i>
   <i name="HFSCREENC">      0.00000000</i>
   <i type="int" name="NBANDSGWLOW">     0</i>
  </separator>
  <separator name="vdW DFT" >
   <i type="logical" name="LUSE_VDW"> F  </i>
   <i name="Zab_VDW">     -0.84910000</i>
   <i name="PARAM1">      0.12340000</i>
   <i name="PARAM2">      1.00000000</i>
   <i name="PARAM3">      0.00000000</i>
  </separator>
  <separator name="model GW" >
   <i type="int" name="MODEL_GW">     0</i>
   <i name="MODEL_EPS0">     21.25614313</i>
   <i name="MODEL_ALPHA">      1.00000000</i>
  </separator>
  <separator name="linear response parameters" >
   <i type="logical" name="LEPSILON"> T  </i>
   <i type="logical" name="LRPA"> F  </i>
   <i type="logical" name="LNABLA"> F  </i>
   <i type="logical" name="LVEL"> F  </i>
   <i type="int" name="KINTER">     0</i>
   <i name="CSHIFT">      0.10000000</i>
   <i name="OMEGAMAX">     -1.00000000</i>
   <i name="DEG_THRESHOLD">      0.00200000</i>
   <i name="RTIME">     -0.10000000</i>
   <i name="WPLASMAI">      0.00000000</i>
   <v name="DFIELD">      0.00000000      0.00000000      0.00000000</v>
   <v name="WPLASMA">      0.00000000      0.00000000      0.00000000      0.00000000      0.00000000      0.00000000      0.00000000      0.00000000      0.00000000</v>
  </separator>
  <separator name="orbital magnetization" >
   <i type="logical" name="NUCIND"> F  </i>
   <v name="MAGPOS">      0.00000000      0.00000000      0.00000000</v>
   <i type="logical" name="LNICSALL"> T  </i>
   <i type="logical" name="ORBITALMAG"> F  </i>
   <i type="logical" name="LMAGBLOCH"> F  </i>
   <i type="logical" name="LCHIMAG"> F  </i>
   <i type="logical" name="LGAUGE"> T  </i>
   <i type="int" name="MAGATOM">     0</i>
   <v name="MAGDIPOL">      0.00000000      0.00000000      0.00000000</v>
   <v name="AVECCONST">      0.00000000      0.00000000      0.00000000</v>
  </separator>
  <separator name="response functions" >
   <i type="logical" name="LADDER"> T  </i>
   <i type="logical" name="LRPAFORCE"> F  </i>
   <i type="logical" name="LFXC"> F  </i>
   <i type="logical" name="LHARTREE"> T  </i>
   <i type="int" name="IBSE">     0</i>
   <v type="int" name="KPOINT">    -1     0     0     0</v>
   <i type="logical" name="LTCTE"> F  </i>
   <i type="logical" name="LTETE"> F  </i>
   <i type="logical" name="LTRIPLET"> F  </i>
   <i type="logical" name="LFXCEPS"> F  </i>
   <i type="logical" name="LFXHEG"> F  </i>
   <i type="int" name="NATURALO">     2</i>
   <i type="logical" name="L2ORDER"> F  </i>
   <i type="logical" name="LMP2LT"> F  </i>
   <i type="logical" name="LUSEW"> F  </i>
   <i name="ENCUTGW">     -2.00000000</i>
   <i name="ENCUTGWSOFT">     -2.00000000</i>
   <i name="ENCUTLF">     -1.00000000</i>
   <i type="int" name="LMAXMP2">    -1</i>
   <i name="SCISSOR">      0.00000000</i>
   <i type="int" name="NOMEGA">     0</i>
   <i type="int" name="NOMEGAR">     0</i>
   <i type="int" name="NBANDSGW">    -1</i>
   <i type="int" name="NBANDSO">    -1</i>
   <i type="int" name="NBANDSV">    -1</i>
   <i type="int" name="NELM">     1</i>
   <i type="int" name="NELMHF">     1</i>
   <i type="int" name="DIM">     3</i>
   <i type="int" name="ANTIRES">     0</i>
   <i name="OMEGAMAX">    -30.00000000</i>
   <i name="OMEGAMIN">    -30.00000000</i>
   <i name="OMEGATL">   -200.00000000</i>
   <i type="int" name="OMEGAGRID">   140</i>
   <i name="CSHIFT">     -0.10000000</i>
   <i type="logical" name="SELFENERGY"> F  </i>
   <i type="logical" name="LSPECTRAL"> F  </i>
   <i type="logical" name="LSPECTRALGW"> F  </i>
   <i type="logical" name="LSINGLES"> F  </i>
   <i type="logical" name="LFERMIGW"> F  </i>
   <i type="logical" name="ODDONLYGW"> F  </i>
   <i type="logical" name="EVENONLYGW"> F  </i>
   <i type="int" name="NKREDLFX">     1</i>
   <i type="int" name="NKREDLFY">     1</i>
   <i type="int" name="NKREDLFZ">     1</i>
   <i type="int" name="MAXMEM">  2800</i>
   <i type="int" name="TELESCOPE">     0</i>
   <i type="int" name="TAUPAR">     1</i>
   <i type="int" name="OMEGAPAR">    -1</i>
   <i name="LAMBDA">      1.00000000</i>
  </separator>
  <separator name="External order field" >
   <i name="OFIELD_KAPPA">      0.00000000</i>
   <v name="OFIELD_K">      0.00000000      0.00000000      0.00000000</v>
   <i name="OFIELD_Q6_NEAR">      0.00000000</i>
   <i name="OFIELD_Q6_FAR">      0.00000000</i>
   <i name="OFIELD_A">      0.00000000</i>
  </separator>
 </parameters>
 <atominfo>
  <atoms>       2 </atoms>
  <types>       2 </types>
  <array name="atoms" >
   <dimension dim="1">ion</dimension>
   <field type="string">element</field>
   <field type="int">atomtype</field>
   <set>
    <rc><c>Te</c><c>   1</c></rc>
    <rc><c>Pb</c><c>   2</c></rc>
   </set>
  </array>
  <array name="atomtypes" >
   <dimension dim="1">type</dimension>
   <field type="int">atomspertype</field>
   <field type="string">element</field>
   <field>mass</field>
   <field>valence</field>
   <field type="string">pseudopotential</field>
   <set>
    <rc><c>   1</c><c>Te</c><c>    127.60000000</c><c>      6.00000000</c><c>  PAW_PBE Te 08Apr2002                  </c></rc>
    <rc><c>   1</c><c>Pb</c><c>    207.20000000</c><c>     14.00000000</c><c>  PAW_PBE Pb_d 06Sep2000                </c></rc>
   </set>
  </array>
 </atominfo>
 <structure name="initialpos" >
  <crystal>
   <varray name="basis" >
    <v>       0.00000000       3.28431199       3.28431199 </v>
    <v>       3.28431199       0.00000000       3.28431199 </v>
    <v>       3.28431199       3.28431199       0.00000000 </v>
   </varray>
   <i name="volume">     70.85381045 </i>
   <varray name="rec_basis" >
    <v>      -0.15223889       0.15223889       0.15223889 </v>
    <v>       0.15223889      -0.15223889       0.15223889 </v>
    <v>       0.15223889       0.15223889      -0.15223889 </v>
   </varray>
  </crystal>
  <varray name="positions" >
   <v>       0.00000000       0.00000000       0.00000000 </v>
   <v>       0.50000000       0.50000000       0.50000000 </v>
  </varray>
 </structure>
 <calculation>
  <scstep>
   <time name="dav">    1.58    1.60</time>
   <time name="total">    1.68    1.70</time>
   <energy>
    <i name="alphaZ">     34.30176348 </i>
    <i name="ewald">  -1366.58178744 </i>
    <i name="hartreedc">   -516.64618241 </i>
    <i name="XCdc">      9.59511022 </i>
    <i name="pawpsdc">   1643.15449491 </i>
    <i name="pawaedc">  -1588.00105475 </i>
    <i name="eentropy">      0.00000000 </i>
    <i name="bandstr">     51.76897803 </i>
    <i name="atom">   1884.88874340 </i>
    <i name="e_fr_energy">    152.48006543 </i>
    <i name="e_wo_entrp">    152.48006543 </i>
    <i name="e_0_energy">    152.48006543 </i>
   </energy>
  </scstep>
  <scstep>
   <time name="dav">    1.64    1.65</time>
   <time name="total">    1.65    1.66</time>
   <energy>
    <i name="e_fr_energy">      2.84380102 </i>
    <i name="e_wo_entrp">      2.84380102 </i>
    <i name="e_0_energy">      2.84380102 </i>
   </energy>
  </scstep>
  <scstep>
   <time name="dav">    1.90    1.90</time>
   <time name="total">    1.90    1.90</time>
   <energy>
    <i name="e_fr_energy">     -7.41902288 </i>
    <i name="e_wo_entrp">     -7.41902288 </i>
    <i name="e_0_energy">     -7.41902288 </i>
   </energy>
  </scstep>
  <scstep>
   <time name="dav">    1.80    1.81</time>
   <time name="total">    1.81    1.81</time>
   <energy>
    <i name="e_fr_energy">     -7.65643961 </i>
    <i name="e_wo_entrp">     -7.65643961 </i>
    <i name="e_0_energy">     -7.65643961 </i>
   </energy>
  </scstep>
  <scstep>
   <time name="dav">    1.96    1.97</time>
   <time name="total">    2.17    2.18</time>
   <energy>
    <i name="e_fr_energy">     -7.66748822 </i>
    <i name="e_wo_entrp">     -7.66748822 </i>
    <i name="e_0_energy">     -7.66748822 </i>
   </energy>
  </scstep>
  <scstep>
   <time name="dav">    2.00    2.01</time>
   <time name="total">    2.29    2.29</time>
   <energy>
    <i name="e_fr_energy">     -7.52453216 </i>
    <i name="e_wo_entrp">     -7.52453216 </i>
    <i name="e_0_energy">     -7.52453216 </i>
   </energy>
  </scstep>
  <scstep>
   <time name="dav">    1.86    1.87</time>
   <time name="total">    2.14    2.15</time>
   <energy>
    <i name="e_fr_energy">     -7.52086693 </i>
    <i name="e_wo_entrp">     -7.52086693 </i>
    <i name="e_0_energy">     -7.52086693 </i>
   </energy>
  </scstep>
  <scstep>
   <time name="dav">    1.78    1.79</time>
   <time name="total">    2.06    2.07</time>
   <energy>
    <i name="e_fr_energy">     -7.52319714 </i>
    <i name="e_wo_entrp">     -7.52319714 </i>
    <i name="e_0_energy">     -7.52319714 </i>
   </energy>
  </scstep>
  <scstep>
   <time name="dav">    2.11    2.13</time>
   <time name="total">    2.39    2.41</time>
   <energy>
    <i name="e_fr_energy">     -7.52297087 </i>
    <i name="e_wo_entrp">     -7.52297087 </i>
    <i name="e_0_energy">     -7.52297087 </i>
   </energy>
  </scstep>
  <scstep>
   <time name="dav">    1.81    1.83</time>
   <time name="total">    2.10    2.11</time>
   <energy>
    <i name="e_fr_energy">     -7.52302896 </i>
    <i name="e_wo_entrp">     -7.52302896 </i>
    <i name="e_0_energy">     -7.52302896 </i>
   </energy>
  </scstep>
  <scstep>
   <time name="dav">    1.97    2.02</time>
   <time name="total">    2.25    2.30</time>
   <energy>
    <i name="e_fr_energy">     -7.52303572 </i>
    <i name="e_wo_entrp">     -7.52303572 </i>
    <i name="e_0_energy">     -7.52303572 </i>
   </energy>
  </scstep>
  <scstep>
   <time name="dav">    1.82    1.84</time>
   <time name="total">    2.11    2.13</time>
   <energy>
    <i name="e_fr_energy">     -7.52303604 </i>
    <i name="e_wo_entrp">     -7.52303604 </i>
    <i name="e_0_energy">     -7.52303604 </i>
   </energy>
  </scstep>
  <scstep>
   <time name="dav">    1.79    1.79</time>
   <time name="total">    2.07    2.08</time>
   <energy>
    <i name="e_fr_energy">     -7.52303589 </i>
    <i name="e_wo_entrp">     -7.52303589 </i>
    <i name="e_0_energy">     -7.52303589 </i>
   </energy>
  </scstep>
  <scstep>
   <time name="dav">    1.50    1.51</time>
   <time name="total">    1.58    1.58</time>
   <energy>
    <i name="alphaZ">     34.30176348 </i>
    <i name="ewald">  -1366.58178744 </i>
    <i name="hartreedc">   -512.70673543 </i>
    <i name="XCdc">      9.72202653 </i>
    <i name="pawpsdc">   1844.60396719 </i>
    <i name="pawaedc">  -1788.76182341 </i>
    <i name="eentropy">      0.00000000 </i>
    <i name="bandstr">   -112.98919021 </i>
    <i name="atom">   1884.88874340 </i>
    <i name="e_fr_energy">     -7.52303590 </i>
    <i name="e_wo_entrp">     -7.52303590 </i>
    <i name="e_0_energy">     -7.52303590 </i>
   </energy>
  </scstep>
  <structure>
   <crystal>
    <varray name="basis" >
     <v>       0.00000000       3.28431199       3.28431199 </v>
     <v>       3.28431199       0.00000000       3.28431199 </v>
     <v>       3.28431199       3.28431199       0.00000000 </v>
    </varray>
    <i name="volume">     70.85381045 </i>
    <varray name="rec_basis" >
     <v>      -0.15223889       0.15223889       0.15223889 </v>
     <v>       0.15223889      -0.15223889       0.15223889 </v>
     <v>       0.15223889       0.15223889      -0.15223889 </v>
    </varray>
   </crystal>
   <varray name="positions" >
    <v>       0.00000000       0.00000000       0.00000000 </v>
    <v>       0.50000000       0.50000000       0.50000000 </v>
   </varray>
  </structure>
  <varray name="forces" >
   <v>      -0.00000000       0.00000000      -0.00000000 </v>
   <v>       0.00000000      -0.00000000       0.00000000 </v>
  </varray>
  <varray name="stress" >
   <v>       0.00447150       0.00000000      -0.00000000 </v>
   <v>       0.00000000       0.00447150       0.00000000 </v>
   <v>       0.00000000       0.00000000       0.00447150 </v>
  </varray>
  <energy>
   <i name="e_fr_energy">     -7.52303590 </i>
   <i name="e_wo_entrp">     -7.52303590 </i>
   <i name="e_0_energy">      0.00000000 </i>
  </energy>
  <scstep>
   <time name="total">    2.25    2.25</time>
   <energy>
    <i name="e_fr_energy">    -83.22544976 </i>
    <i name="e_wo_entrp">    -83.22544976 </i>
    <i name="e_0_energy">    -83.22544976 </i>
   </energy>
  </scstep>
  <scstep>
   <time name="total">    2.48    2.48</time>
   <energy>
    <i name="e_fr_energy">    -78.61654736 </i>
    <i name="e_wo_entrp">    -78.61654736 </i>
    <i name="e_0_energy">    -78.61654736 </i>
   </energy>
  </scstep>
  <scstep>
   <time name="total">    2.63    2.63</time>
   <energy>
    <i name="e_fr_energy">    -78.95107521 </i>
    <i name="e_wo_entrp">    -78.95107521 </i>
    <i name="e_0_energy">    -78.95107521 </i>
   </energy>
  </scstep>
  <scstep>
   <time name="total">    2.05    2.05</time>
   <energy>
    <i name="e_fr_energy">    -78.95579331 </i>
    <i name="e_wo_entrp">    -78.95579331 </i>
    <i name="e_0_energy">    -78.95579331 </i>
   </energy>
  </scstep>
  <scstep>
   <time name="total">    2.09    2.09</time>
   <energy>
    <i name="e_fr_energy">    -78.96287633 </i>
    <i name="e_wo_entrp">    -78.96287633 </i>
    <i name="e_0_energy">    -78.96287633 </i>
   </energy>
  </scstep>
  <scstep>
   <time name="total">    2.16    2.16</time>
   <energy>
    <i name="e_fr_energy">    -78.96248838 </i>
    <i name="e_wo_entrp">    -78.96248838 </i>
    <i name="e_0_energy">    -78.96248838 </i>
   </energy>
  </scstep>
  <scstep>
   <time name="total">    2.14    2.15</time>
   <energy>
    <i name="e_fr_energy">    -78.96248463 </i>
    <i name="e_wo_entrp">    -78.96248463 </i>
    <i name="e_0_energy">    -78.96248463 </i>
   </energy>
  </scstep>
  <scstep>
   <time name="total">    2.08    2.08</time>
   <energy>
    <i name="e_fr_energy">    -78.96248354 </i>
    <i name="e_wo_entrp">    -78.96248354 </i>
    <i name="e_0_energy">    -78.96248354 </i>
   </energy>
  </scstep>
  <scstep>
   <time name="total">    2.13    2.13</time>
   <energy>
    <i name="e_fr_energy">    -78.96248193 </i>
    <i name="e_wo_entrp">    -78.96248193 </i>
    <i name="e_0_energy">    -78.96248193 </i>
   </energy>
  </scstep>
  <scstep>
   <time name="total">    2.11    2.11</time>
   <energy>
    <i name="e_fr_energy">    -78.96248092 </i>
    <i name="e_wo_entrp">    -78.96248092 </i>
    <i name="e_0_energy">    -78.96248092 </i>
   </energy>
  </scstep>
  <scstep>
   <time name="total">    2.06    2.06</time>
   <energy>
    <i name="e_fr_energy">    -78.96248234 </i>
    <i name="e_wo_entrp">    -78.96248234 </i>
    <i name="e_0_energy">    -78.96248234 </i>
   </energy>
  </scstep>
  <scstep>
   <time name="total">    1.99    1.99</time>
   <energy>
    <i name="e_fr_energy">    -78.96248239 </i>
    <i name="e_wo_entrp">    -78.96248239 </i>
    <i name="e_0_energy">    -78.96248239 </i>
   </energy>
  </scstep>
  <scstep>
   <time name="total">    1.94    1.94</time>
   <energy>
    <i name="e_fr_energy">    -78.96248248 </i>
    <i name="e_wo_entrp">    -78.96248248 </i>
    <i name="e_0_energy">    -78.96248248 </i>
   </energy>
  </scstep>
  <scstep>
   <time name="total">    1.81    1.81</time>
   <energy>
    <i name="e_fr_energy">    -78.96248201 </i>
    <i name="e_wo_entrp">    -78.96248201 </i>
    <i name="e_0_energy">    -78.96248201 </i>
   </energy>
  </scstep>
  <scstep>
   <time name="total">    1.79    1.79</time>
   <energy>
    <i name="e_fr_energy">    -78.96248232 </i>
    <i name="e_wo_entrp">    -78.96248232 </i>
    <i name="e_0_energy">    -78.96248232 </i>
   </energy>
  </scstep>
  <scstep>
   <time name="total">    2.25    2.25</time>
   <energy>
    <i name="e_fr_energy">    -88.96416005 </i>
    <i name="e_wo_entrp">    -88.96416005 </i>
    <i name="e_0_energy">    -88.96416005 </i>
   </energy>
  </scstep>
  <scstep>
   <time name="total">    2.43    2.43</time>
   <energy>
    <i name="e_fr_energy">   -100.77249235 </i>
    <i name="e_wo_entrp">   -100.77249235 </i>
    <i name="e_0_energy">   -100.77249235 </i>
   </energy>
  </scstep>
  <scstep>
   <time name="total">    2.58    2.58</time>
   <energy>
    <i name="e_fr_energy">   -101.09018528 </i>
    <i name="e_wo_entrp">   -101.09018528 </i>
    <i name="e_0_energy">   -101.09018528 </i>
   </energy>
  </scstep>
  <scstep>
   <time name="total">    2.06    2.06</time>
   <energy>
    <i name="e_fr_energy">   -101.10807962 </i>
    <i name="e_wo_entrp">   -101.10807962 </i>
    <i name="e_0_energy">   -101.10807962 </i>
   </energy>
  </scstep>
  <scstep>
   <time name="total">    2.08    2.08</time>
   <energy>
    <i name="e_fr_energy">   -101.11559717 </i>
    <i name="e_wo_entrp">   -101.11559717 </i>
    <i name="e_0_energy">   -101.11559717 </i>
   </energy>
  </scstep>
  <scstep>
   <time name="total">    2.18    2.18</time>
   <energy>
    <i name="e_fr_energy">   -101.11542659 </i>
    <i name="e_wo_entrp">   -101.11542659 </i>
    <i name="e_0_energy">   -101.11542659 </i>
   </energy>
  </scstep>
  <scstep>
   <time name="total">    2.04    2.04</time>
   <energy>
    <i name="e_fr_energy">   -101.11542995 </i>
    <i name="e_wo_entrp">   -101.11542995 </i>
    <i name="e_0_energy">   -101.11542995 </i>
   </energy>
  </scstep>
  <scstep>
   <time name="total">    2.15    2.15</time>
   <energy>
    <i name="e_fr_energy">   -101.11543790 </i>
    <i name="e_wo_entrp">   -101.11543790 </i>
    <i name="e_0_energy">   -101.11543790 </i>
   </energy>
  </scstep>
  <scstep>
   <time name="total">    2.10    2.10</time>
   <energy>
    <i name="e_fr_energy">   -101.11543496 </i>
    <i name="e_wo_entrp">   -101.11543496 </i>
    <i name="e_0_energy">   -101.11543496 </i>
   </energy>
  </scstep>
  <scstep>
   <time name="total">    2.02    2.02</time>
   <energy>
    <i name="e_fr_energy">   -101.11543563 </i>
    <i name="e_wo_entrp">   -101.11543563 </i>
    <i name="e_0_energy">   -101.11543563 </i>
   </energy>
  </scstep>
  <scstep>
   <time name="total">    1.95    1.95</time>
   <energy>
    <i name="e_fr_energy">   -101.11543492 </i>
    <i name="e_wo_entrp">   -101.11543492 </i>
    <i name="e_0_energy">   -101.11543492 </i>
   </energy>
  </scstep>
  <scstep>
   <time name="total">    1.86    1.86</time>
   <energy>
    <i name="e_fr_energy">   -101.11543525 </i>
    <i name="e_wo_entrp">   -101.11543525 </i>
    <i name="e_0_energy">   -101.11543525 </i>
   </energy>
  </scstep>
  <scstep>
   <time name="total">    1.80    1.80</time>
   <energy>
    <i name="e_fr_energy">   -101.11543476 </i>
    <i name="e_wo_entrp">   -101.11543476 </i>
    <i name="e_0_energy">   -101.11543476 </i>
   </energy>
  </scstep>
  <scstep>
   <time name="total">    1.77    1.77</time>
   <energy>
    <i name="e_fr_energy">   -101.11543540 </i>
    <i name="e_wo_entrp">   -101.11543540 </i>
    <i name="e_0_energy">   -101.11543540 </i>
   </energy>
  </scstep>
  <scstep>
   <time name="total">    1.74    1.75</time>
   <energy>
    <i name="e_fr_energy">   -101.11543496 </i>
    <i name="e_wo_entrp">   -101.11543496 </i>
    <i name="e_0_energy">   -101.11543496 </i>
   </energy>
  </scstep>
  <scstep>
   <time name="total">    2.23    2.23</time>
   <energy>
    <i name="e_fr_energy">    -72.73560709 </i>
    <i name="e_wo_entrp">    -72.73560709 </i>
    <i name="e_0_energy">    -72.73560709 </i>
   </energy>
  </scstep>
  <scstep>
   <time name="total">    2.46    2.46</time>
   <energy>
    <i name="e_fr_energy">    -73.22421540 </i>
    <i name="e_wo_entrp">    -73.22421540 </i>
    <i name="e_0_energy">    -73.22421540 </i>
   </energy>
  </scstep>
  <scstep>
   <time name="total">    2.52    2.52</time>
   <energy>
    <i name="e_fr_energy">    -73.23382018 </i>
    <i name="e_wo_entrp">    -73.23382018 </i>
    <i name="e_0_energy">    -73.23382018 </i>
   </energy>
  </scstep>
  <scstep>
   <time name="total">    2.10    2.10</time>
   <energy>
    <i name="e_fr_energy">    -73.25119980 </i>
    <i name="e_wo_entrp">    -73.25119980 </i>
    <i name="e_0_energy">    -73.25119980 </i>
   </energy>
  </scstep>
  <scstep>
   <time name="total">    2.04    2.04</time>
   <energy>
    <i name="e_fr_energy">    -73.25315449 </i>
    <i name="e_wo_entrp">    -73.25315449 </i>
    <i name="e_0_energy">    -73.25315449 </i>
   </energy>
  </scstep>
  <scstep>
   <time name="total">    2.16    2.16</time>
   <energy>
    <i name="e_fr_energy">    -73.25313033 </i>
    <i name="e_wo_entrp">    -73.25313033 </i>
    <i name="e_0_energy">    -73.25313033 </i>
   </energy>
  </scstep>
  <scstep>
   <time name="total">    2.05    2.05</time>
   <energy>
    <i name="e_fr_energy">    -73.25313331 </i>
    <i name="e_wo_entrp">    -73.25313331 </i>
    <i name="e_0_energy">    -73.25313331 </i>
   </energy>
  </scstep>
  <scstep>
   <time name="total">    2.13    2.13</time>
   <energy>
    <i name="e_fr_energy">    -73.25313499 </i>
    <i name="e_wo_entrp">    -73.25313499 </i>
    <i name="e_0_energy">    -73.25313499 </i>
   </energy>
  </scstep>
  <scstep>
   <time name="total">    2.08    2.08</time>
   <energy>
    <i name="e_fr_energy">    -73.25313498 </i>
    <i name="e_wo_entrp">    -73.25313498 </i>
    <i name="e_0_energy">    -73.25313498 </i>
   </energy>
  </scstep>
  <scstep>
   <time name="total">    1.96    1.96</time>
   <energy>
    <i name="e_fr_energy">    -73.25313462 </i>
    <i name="e_wo_entrp">    -73.25313462 </i>
    <i name="e_0_energy">    -73.25313462 </i>
   </energy>
  </scstep>
  <scstep>
   <time name="total">    1.94    1.94</time>
   <energy>
    <i name="e_fr_energy">    -73.25313508 </i>
    <i name="e_wo_entrp">    -73.25313508 </i>
    <i name="e_0_energy">    -73.25313508 </i>
   </energy>
  </scstep>
  <scstep>
   <time name="total">    1.86    1.86</time>
   <energy>
    <i name="e_fr_energy">    -73.25313463 </i>
    <i name="e_wo_entrp">    -73.25313463 </i>
    <i name="e_0_energy">    -73.25313463 </i>
   </energy>
  </scstep>
  <scstep>
   <time name="total">    1.68    1.68</time>
   <energy>
    <i name="e_fr_energy">    -73.25313510 </i>
    <i name="e_wo_entrp">    -73.25313510 </i>
    <i name="e_0_energy">    -73.25313510 </i>
   </energy>
  </scstep>
  <scstep>
   <time name="total">    1.58    1.58</time>
   <energy>
    <i name="e_fr_energy">    -73.25313497 </i>
    <i name="e_wo_entrp">    -73.25313497 </i>
    <i name="e_0_energy">    -73.25313497 </i>
   </energy>
  </scstep>
  <scstep>
   <time name="total">    1.53    1.53</time>
   <energy>
    <i name="e_fr_energy">    -73.25313504 </i>
    <i name="e_wo_entrp">    -73.25313504 </i>
    <i name="e_0_energy">    -73.25313504 </i>
   </energy>
  </scstep>
  <scstep>
   <time name="total">    2.59    2.59</time>
   <energy>
    <i name="e_fr_energy">     -3.17002389 </i>
    <i name="e_wo_entrp">     -3.17002389 </i>
    <i name="e_0_energy">     -3.17002389 </i>
   </energy>
  </scstep>
  <scstep>
   <time name="total">    2.67    2.67</time>
   <energy>
    <i name="e_fr_energy">     -3.45710584 </i>
    <i name="e_wo_entrp">     -3.45710584 </i>
    <i name="e_0_energy">     -3.45710584 </i>
   </energy>
  </scstep>
  <scstep>
   <time name="total">    2.95    2.95</time>
   <energy>
    <i name="e_fr_energy">     -3.46110786 </i>
    <i name="e_wo_entrp">     -3.46110786 </i>
    <i name="e_0_energy">     -3.46110786 </i>
   </energy>
  </scstep>
  <scstep>
   <time name="total">    2.83    2.83</time>
   <energy>
    <i name="e_fr_energy">     -3.46157375 </i>
    <i name="e_wo_entrp">     -3.46157375 </i>
    <i name="e_0_energy">     -3.46157375 </i>
   </energy>
  </scstep>
  <scstep>
   <time name="total">    2.85    2.86</time>
   <energy>
    <i name="e_fr_energy">     -3.46157982 </i>
    <i name="e_wo_entrp">     -3.46157982 </i>
    <i name="e_0_energy">     -3.46157982 </i>
   </energy>
  </scstep>
  <scstep>
   <time name="total">    2.86    2.86</time>
   <energy>
    <i name="e_fr_energy">     -3.46158048 </i>
    <i name="e_wo_entrp">     -3.46158048 </i>
    <i name="e_0_energy">     -3.46158048 </i>
   </energy>
  </scstep>
  <scstep>
   <time name="total">    2.83    2.83</time>
   <energy>
    <i name="e_fr_energy">     -3.46158053 </i>
    <i name="e_wo_entrp">     -3.46158053 </i>
    <i name="e_0_energy">     -3.46158053 </i>
   </energy>
  </scstep>
  <scstep>
   <time name="total">    2.64    2.64</time>
   <energy>
    <i name="e_fr_energy">     -7.94943337 </i>
    <i name="e_wo_entrp">     -7.94943337 </i>
    <i name="e_0_energy">     -7.94943337 </i>
   </energy>
  </scstep>
  <scstep>
   <time name="total">    2.64    2.64</time>
   <energy>
    <i name="e_fr_energy">     -8.55785331 </i>
    <i name="e_wo_entrp">     -8.55785331 </i>
    <i name="e_0_energy">     -8.55785331 </i>
   </energy>
  </scstep>
  <scstep>
   <time name="total">    2.93    2.93</time>
   <energy>
    <i name="e_fr_energy">     -8.57139837 </i>
    <i name="e_wo_entrp">     -8.57139837 </i>
    <i name="e_0_energy">     -8.57139837 </i>
   </energy>
  </scstep>
  <scstep>
   <time name="total">    2.81    2.81</time>
   <energy>
    <i name="e_fr_energy">     -8.57272108 </i>
    <i name="e_wo_entrp">     -8.57272108 </i>
    <i name="e_0_energy">     -8.57272108 </i>
   </energy>
  </scstep>
  <scstep>
   <time name="total">    2.91    2.91</time>
   <energy>
    <i name="e_fr_energy">     -8.57273974 </i>
    <i name="e_wo_entrp">     -8.57273974 </i>
    <i name="e_0_energy">     -8.57273974 </i>
   </energy>
  </scstep>
  <scstep>
   <time name="total">    2.85    2.85</time>
   <energy>
    <i name="e_fr_energy">     -8.57274210 </i>
    <i name="e_wo_entrp">     -8.57274210 </i>
    <i name="e_0_energy">     -8.57274210 </i>
   </energy>
  </scstep>
  <scstep>
   <time name="total">    2.85    2.85</time>
   <energy>
    <i name="e_fr_energy">     -8.57274228 </i>
    <i name="e_wo_entrp">     -8.57274228 </i>
    <i name="e_0_energy">     -8.57274228 </i>
   </energy>
  </scstep>
  <scstep>
   <time name="total">    2.72    2.72</time>
   <energy>
    <i name="e_fr_energy">     -8.57274227 </i>
    <i name="e_wo_entrp">     -8.57274227 </i>
    <i name="e_0_energy">     -8.57274227 </i>
   </energy>
  </scstep>
  <scstep>
   <time name="total">    2.62    2.62</time>
   <energy>
    <i name="e_fr_energy">     -2.94714013 </i>
    <i name="e_wo_entrp">     -2.94714013 </i>
    <i name="e_0_energy">     -2.94714013 </i>
   </energy>
  </scstep>
  <scstep>
   <time name="total">    2.76    2.76</time>
   <energy>
    <i name="e_fr_energy">     -3.21276175 </i>
    <i name="e_wo_entrp">     -3.21276175 </i>
    <i name="e_0_energy">     -3.21276175 </i>
   </energy>
  </scstep>
  <scstep>
   <time name="total">    2.85    2.85</time>
   <energy>
    <i name="e_fr_energy">     -3.21585690 </i>
    <i name="e_wo_entrp">     -3.21585690 </i>
    <i name="e_0_energy">     -3.21585690 </i>
   </energy>
  </scstep>
  <scstep>
   <time name="total">    2.79    2.79</time>
   <energy>
    <i name="e_fr_energy">     -3.21619900 </i>
    <i name="e_wo_entrp">     -3.21619900 </i>
    <i name="e_0_energy">     -3.21619900 </i>
   </energy>
  </scstep>
  <scstep>
   <time name="total">    2.88    2.88</time>
   <energy>
    <i name="e_fr_energy">     -3.21620403 </i>
    <i name="e_wo_entrp">     -3.21620403 </i>
    <i name="e_0_energy">     -3.21620403 </i>
   </energy>
  </scstep>
  <scstep>
   <time name="total">    2.89    2.90</time>
   <energy>
    <i name="e_fr_energy">     -3.21620478 </i>
    <i name="e_wo_entrp">     -3.21620478 </i>
    <i name="e_0_energy">     -3.21620478 </i>
   </energy>
  </scstep>
  <scstep>
   <time name="total">    2.82    2.82</time>
   <energy>
    <i name="e_fr_energy">     -3.21620481 </i>
    <i name="e_wo_entrp">     -3.21620481 </i>
    <i name="e_0_energy">     -3.21620481 </i>
   </energy>
  </scstep>
  <varray name="epsilon_rpa" >
   <v>      26.96547794      -0.00000000       0.00000000 </v>
   <v>      -0.00000000      26.96547794       0.00000000 </v>
   <v>      -0.00000000      -0.00000000      26.96547794 </v>
  </varray>
  <kpoints>
   <generation param="Gamma">
    <v type="int" name="divisions">      13       13       13 </v>
    <v name="usershift">      0.00000000       0.00000000       0.00000000 </v>
    <v name="genvec1">      0.07692308       0.00000000       0.00000000 </v>
    <v name="genvec2">      0.00000000       0.07692308       0.00000000 </v>
    <v name="genvec3">      0.00000000       0.00000000       0.07692308 </v>
    <v name="shift">      0.00000000       0.00000000       0.00000000 </v>
   </generation>
   <varray name="kpointlist" >
    <v>       0.00000000       0.00000000       0.00000000 </v>
    <v>       0.07692308       0.00000000       0.00000000 </v>
    <v>       0.15384615       0.00000000       0.00000000 </v>
    <v>       0.23076923       0.00000000       0.00000000 </v>
    <v>       0.30769231       0.00000000       0.00000000 </v>
    <v>       0.38461538       0.00000000       0.00000000 </v>
    <v>       0.46153846       0.00000000       0.00000000 </v>
    <v>       0.07692308       0.07692308       0.00000000 </v>
    <v>       0.15384615       0.07692308       0.00000000 </v>
    <v>       0.23076923       0.07692308       0.00000000 </v>
    <v>       0.30769231       0.07692308       0.00000000 </v>
    <v>       0.38461538       0.07692308       0.00000000 </v>
    <v>       0.46153846       0.07692308       0.00000000 </v>
    <v>      -0.46153846       0.07692308       0.00000000 </v>
    <v>      -0.38461538       0.07692308       0.00000000 </v>
    <v>      -0.30769231       0.07692308       0.00000000 </v>
    <v>      -0.23076923       0.07692308       0.00000000 </v>
    <v>      -0.15384615       0.07692308       0.00000000 </v>
    <v>      -0.07692308       0.07692308       0.00000000 </v>
    <v>       0.15384615       0.15384615       0.00000000 </v>
    <v>       0.23076923       0.15384615       0.00000000 </v>
    <v>       0.30769231       0.15384615       0.00000000 </v>
    <v>       0.38461538       0.15384615       0.00000000 </v>
    <v>       0.46153846       0.15384615       0.00000000 </v>
    <v>      -0.46153846       0.15384615       0.00000000 </v>
    <v>      -0.38461538       0.15384615       0.00000000 </v>
    <v>      -0.30769231       0.15384615       0.00000000 </v>
    <v>      -0.23076923       0.15384615       0.00000000 </v>
    <v>      -0.15384615       0.15384615       0.00000000 </v>
    <v>       0.23076923       0.23076923       0.00000000 </v>
    <v>       0.30769231       0.23076923       0.00000000 </v>
    <v>       0.38461538       0.23076923       0.00000000 </v>
    <v>       0.46153846       0.23076923       0.00000000 </v>
    <v>      -0.46153846       0.23076923       0.00000000 </v>
    <v>      -0.38461538       0.23076923       0.00000000 </v>
    <v>      -0.30769231       0.23076923       0.00000000 </v>
    <v>      -0.23076923       0.23076923       0.00000000 </v>
    <v>       0.30769231       0.30769231       0.00000000 </v>
    <v>       0.38461538       0.30769231       0.00000000 </v>
    <v>       0.46153846       0.30769231       0.00000000 </v>
    <v>      -0.46153846       0.30769231       0.00000000 </v>
    <v>      -0.38461538       0.30769231       0.00000000 </v>
    <v>      -0.30769231       0.30769231       0.00000000 </v>
    <v>       0.38461538       0.38461538       0.00000000 </v>
    <v>       0.46153846       0.38461538       0.00000000 </v>
    <v>      -0.46153846       0.38461538       0.00000000 </v>
    <v>      -0.38461538       0.38461538       0.00000000 </v>
    <v>       0.46153846       0.46153846       0.00000000 </v>
    <v>      -0.46153846       0.46153846       0.00000000 </v>
    <v>       0.00000000       0.07692308       0.07692308 </v>
    <v>       0.15384615       0.07692308       0.07692308 </v>
    <v>       0.23076923       0.07692308       0.07692308 </v>
    <v>       0.30769231       0.07692308       0.07692308 </v>
    <v>       0.38461538       0.07692308       0.07692308 </v>
    <v>       0.46153846       0.07692308       0.07692308 </v>
    <v>      -0.46153846       0.07692308       0.07692308 </v>
    <v>      -0.38461538       0.07692308       0.07692308 </v>
    <v>      -0.30769231       0.07692308       0.07692308 </v>
    <v>      -0.23076923       0.07692308       0.07692308 </v>
    <v>      -0.15384615       0.07692308       0.07692308 </v>
    <v>      -0.07692308       0.07692308       0.07692308 </v>
    <v>       0.23076923       0.15384615       0.07692308 </v>
    <v>       0.30769231       0.15384615       0.07692308 </v>
    <v>       0.38461538       0.15384615       0.07692308 </v>
    <v>       0.46153846       0.15384615       0.07692308 </v>
    <v>      -0.46153846       0.15384615       0.07692308 </v>
    <v>      -0.38461538       0.15384615       0.07692308 </v>
    <v>      -0.30769231       0.15384615       0.07692308 </v>
    <v>      -0.23076923       0.15384615       0.07692308 </v>
    <v>      -0.15384615       0.15384615       0.07692308 </v>
    <v>      -0.07692308       0.15384615       0.07692308 </v>
    <v>       0.15384615       0.23076923       0.07692308 </v>
    <v>       0.30769231       0.23076923       0.07692308 </v>
    <v>       0.38461538       0.23076923       0.07692308 </v>
    <v>       0.46153846       0.23076923       0.07692308 </v>
    <v>      -0.46153846       0.23076923       0.07692308 </v>
    <v>      -0.38461538       0.23076923       0.07692308 </v>
    <v>      -0.30769231       0.23076923       0.07692308 </v>
    <v>      -0.23076923       0.23076923       0.07692308 </v>
    <v>      -0.15384615       0.23076923       0.07692308 </v>
    <v>       0.15384615       0.30769231       0.07692308 </v>
    <v>       0.23076923       0.30769231       0.07692308 </v>
    <v>       0.38461538       0.30769231       0.07692308 </v>
    <v>       0.46153846       0.30769231       0.07692308 </v>
    <v>      -0.46153846       0.30769231       0.07692308 </v>
    <v>      -0.38461538       0.30769231       0.07692308 </v>
    <v>      -0.30769231       0.30769231       0.07692308 </v>
    <v>      -0.23076923       0.30769231       0.07692308 </v>
    <v>       0.15384615       0.38461538       0.07692308 </v>
    <v>       0.23076923       0.38461538       0.07692308 </v>
    <v>       0.30769231       0.38461538       0.07692308 </v>
    <v>       0.46153846       0.38461538       0.07692308 </v>
    <v>      -0.46153846       0.38461538       0.07692308 </v>
    <v>      -0.38461538       0.38461538       0.07692308 </v>
    <v>      -0.30769231       0.38461538       0.07692308 </v>
    <v>       0.15384615       0.46153846       0.07692308 </v>
    <v>       0.23076923       0.46153846       0.07692308 </v>
    <v>       0.30769231       0.46153846       0.07692308 </v>
    <v>       0.38461538       0.46153846       0.07692308 </v>
    <v>      -0.46153846       0.46153846       0.07692308 </v>
    <v>      -0.38461538       0.46153846       0.07692308 </v>
    <v>       0.15384615      -0.46153846       0.07692308 </v>
    <v>       0.23076923      -0.46153846       0.07692308 </v>
    <v>       0.30769231      -0.46153846       0.07692308 </v>
    <v>       0.38461538      -0.46153846       0.07692308 </v>
    <v>       0.46153846      -0.46153846       0.07692308 </v>
    <v>       0.23076923      -0.38461538       0.07692308 </v>
    <v>       0.30769231      -0.38461538       0.07692308 </v>
    <v>       0.38461538      -0.38461538       0.07692308 </v>
    <v>       0.46153846      -0.38461538       0.07692308 </v>
    <v>       0.23076923      -0.30769231       0.07692308 </v>
    <v>       0.30769231      -0.30769231       0.07692308 </v>
    <v>       0.38461538      -0.30769231       0.07692308 </v>
    <v>       0.23076923      -0.23076923       0.07692308 </v>
    <v>       0.30769231      -0.23076923       0.07692308 </v>
    <v>       0.23076923      -0.15384615       0.07692308 </v>
    <v>       0.00000000       0.15384615       0.15384615 </v>
    <v>       0.30769231       0.15384615       0.15384615 </v>
    <v>       0.38461538       0.15384615       0.15384615 </v>
    <v>       0.46153846       0.15384615       0.15384615 </v>
    <v>      -0.46153846       0.15384615       0.15384615 </v>
    <v>      -0.38461538       0.15384615       0.15384615 </v>
    <v>      -0.30769231       0.15384615       0.15384615 </v>
    <v>      -0.23076923       0.15384615       0.15384615 </v>
    <v>      -0.15384615       0.15384615       0.15384615 </v>
    <v>      -0.07692308       0.15384615       0.15384615 </v>
    <v>       0.38461538       0.23076923       0.15384615 </v>
    <v>       0.46153846       0.23076923       0.15384615 </v>
    <v>      -0.46153846       0.23076923       0.15384615 </v>
    <v>      -0.38461538       0.23076923       0.15384615 </v>
    <v>      -0.30769231       0.23076923       0.15384615 </v>
    <v>      -0.23076923       0.23076923       0.15384615 </v>
    <v>      -0.15384615       0.23076923       0.15384615 </v>
    <v>      -0.07692308       0.23076923       0.15384615 </v>
    <v>       0.46153846       0.30769231       0.15384615 </v>
    <v>      -0.46153846       0.30769231       0.15384615 </v>
    <v>      -0.38461538       0.30769231       0.15384615 </v>
    <v>      -0.30769231       0.30769231       0.15384615 </v>
    <v>      -0.23076923       0.30769231       0.15384615 </v>
    <v>      -0.15384615       0.30769231       0.15384615 </v>
    <v>      -0.46153846       0.38461538       0.15384615 </v>
    <v>      -0.38461538       0.38461538       0.15384615 </v>
    <v>      -0.30769231       0.38461538       0.15384615 </v>
    <v>      -0.23076923       0.38461538       0.15384615 </v>
    <v>       0.30769231       0.46153846       0.15384615 </v>
    <v>      -0.38461538       0.46153846       0.15384615 </v>
    <v>      -0.30769231       0.46153846       0.15384615 </v>
    <v>       0.30769231      -0.46153846       0.15384615 </v>
    <v>       0.38461538      -0.46153846       0.15384615 </v>
    <v>       0.30769231      -0.38461538       0.15384615 </v>
    <v>       0.38461538      -0.38461538       0.15384615 </v>
    <v>       0.46153846      -0.38461538       0.15384615 </v>
    <v>       0.38461538      -0.30769231       0.15384615 </v>
    <v>       0.46153846      -0.30769231       0.15384615 </v>
    <v>       0.38461538      -0.23076923       0.15384615 </v>
    <v>       0.00000000       0.23076923       0.23076923 </v>
    <v>       0.46153846       0.23076923       0.23076923 </v>
    <v>      -0.46153846       0.23076923       0.23076923 </v>
    <v>      -0.38461538       0.23076923       0.23076923 </v>
    <v>      -0.30769231       0.23076923       0.23076923 </v>
    <v>      -0.23076923       0.23076923       0.23076923 </v>
    <v>      -0.15384615       0.23076923       0.23076923 </v>
    <v>      -0.07692308       0.23076923       0.23076923 </v>
    <v>      -0.46153846       0.30769231       0.23076923 </v>
    <v>      -0.38461538       0.30769231       0.23076923 </v>
[...]
       <r>    9.3848    0.0000 </r>
       <r>    9.7093    0.0000 </r>
       <r>   10.6160    0.0000 </r>
       <r>   13.6048    0.0000 </r>
       <r>   14.7443    0.0000 </r>
      </set>
      <set comment="kpoint 79">
       <r>  -11.6756    1.0000 </r>
       <r>  -11.6440    1.0000 </r>
       <r>  -11.6369    1.0000 </r>
       <r>  -11.6270    1.0000 </r>
       <r>  -11.6191    1.0000 </r>
       <r>   -5.0623    1.0000 </r>
       <r>   -2.8032    1.0000 </r>
       <r>    1.6672    1.0000 </r>
       <r>    2.0040    1.0000 </r>
       <r>    4.2681    1.0000 </r>
       <r>    7.1716    0.0000 </r>
       <r>    9.6449    0.0000 </r>
       <r>   10.1017    0.0000 </r>
       <r>   10.9250    0.0000 </r>
       <r>   12.6809    0.0000 </r>
       <r>   15.3078    0.0000 </r>
      </set>
      <set comment="kpoint 80">
       <r>  -11.6739    1.0000 </r>
       <r>  -11.6456    1.0000 </r>
       <r>  -11.6333    1.0000 </r>
       <r>  -11.6303    1.0000 </r>
       <r>  -11.6191    1.0000 </r>
       <r>   -5.0128    1.0000 </r>
       <r>   -2.8946    1.0000 </r>
       <r>    1.6252    1.0000 </r>
       <r>    2.0193    1.0000 </r>
       <r>    4.5943    1.0000 </r>
       <r>    6.7491    0.0000 </r>
       <r>    9.6633    0.0000 </r>
       <r>   10.1892    0.0000 </r>
       <r>   11.3750    0.0000 </r>
       <r>   11.9863    0.0000 </r>
       <r>   15.2452    0.0000 </r>
      </set>
      <set comment="kpoint 81">
       <r>  -11.6713    1.0000 </r>
       <r>  -11.6464    1.0000 </r>
       <r>  -11.6337    1.0000 </r>
       <r>  -11.6296    1.0000 </r>
       <r>  -11.6205    1.0000 </r>
       <r>   -5.0978    1.0000 </r>
       <r>   -2.8851    1.0000 </r>
       <r>    1.8032    1.0000 </r>
       <r>    2.2182    1.0000 </r>
       <r>    4.6683    1.0000 </r>
       <r>    6.6115    0.0000 </r>
       <r>    9.3124    0.0000 </r>
       <r>    9.9486    0.0000 </r>
       <r>   11.4639    0.0000 </r>
       <r>   12.2167    0.0000 </r>
       <r>   14.6841    0.0000 </r>
      </set>
      <set comment="kpoint 82">
       <r>  -11.6813    1.0000 </r>
       <r>  -11.6406    1.0000 </r>
       <r>  -11.6403    1.0000 </r>
       <r>  -11.6240    1.0000 </r>
       <r>  -11.6178    1.0000 </r>
       <r>   -5.0384    1.0000 </r>
       <r>   -2.6380    1.0000 </r>
       <r>    1.2481    1.0000 </r>
       <r>    2.0537    1.0000 </r>
       <r>    3.7384    1.0000 </r>
       <r>    7.9874    0.0000 </r>
       <r>    9.3362    0.0000 </r>
       <r>   10.7643    0.0000 </r>
       <r>   10.7680    0.0000 </r>
       <r>   13.2915    0.0000 </r>
       <r>   15.3415    0.0000 </r>
      </set>
      <set comment="kpoint 83">
       <r>  -11.6783    1.0000 </r>
       <r>  -11.6430    1.0000 </r>
       <r>  -11.6371    1.0000 </r>
       <r>  -11.6271    1.0000 </r>
       <r>  -11.6178    1.0000 </r>
       <r>   -4.9876    1.0000 </r>
       <r>   -2.7682    1.0000 </r>
       <r>    1.3184    1.0000 </r>
       <r>    1.9359    1.0000 </r>
       <r>    4.2181    1.0000 </r>
       <r>    7.3146    0.0000 </r>
       <r>    9.6728    0.0000 </r>
       <r>   10.6325    0.0000 </r>
       <r>   10.9712    0.0000 </r>
       <r>   12.6183    0.0000 </r>
       <r>   15.8255    0.0000 </r>
      </set>
      <set comment="kpoint 84">
       <r>  -11.6763    1.0000 </r>
       <r>  -11.6445    1.0000 </r>
       <r>  -11.6340    1.0000 </r>
       <r>  -11.6304    1.0000 </r>
       <r>  -11.6178    1.0000 </r>
       <r>   -4.9804    1.0000 </r>
       <r>   -2.8190    1.0000 </r>
       <r>    1.5588    1.0000 </r>
       <r>    1.6699    1.0000 </r>
       <r>    4.6589    1.0000 </r>
       <r>    6.7775    0.0000 </r>
       <r>   10.0288    0.0000 </r>
       <r>   10.2631    0.0000 </r>
       <r>   11.4986    0.0000 </r>
       <r>   11.9757    0.0000 </r>
       <r>   15.6274    0.0000 </r>
      </set>
     </set>
    </set>
   </array>
  </eigenvalues>
  <separator name="orbital magnetization" >
   <v name="MAGDIPOLOUT">      0.00000000      0.00000000      0.00000000</v>
  </separator>
  <dos>
   <i name="efermi">      5.02238247 </i>
   <total>
    <array>
     <dimension dim="1">gridpoints</dimension>
     <dimension dim="2">spin</dimension>
     <field>energy</field>
     <field>total</field>
     <field>integrated</field>
     <set>
      <set comment="spin 1">
       <r>   -13.6899     0.0000     0.0000 </r>
       <r>   -13.5849     0.0000     0.0000 </r>
       <r>   -13.4798     0.0000     0.0000 </r>
       <r>   -13.3748     0.0000     0.0000 </r>
       <r>   -13.2697     0.0000     0.0000 </r>
       <r>   -13.1647     0.0000     0.0000 </r>
       <r>   -13.0596     0.0000     0.0000 </r>
       <r>   -12.9545     0.0000     0.0000 </r>
       <r>   -12.8495     0.0000     0.0000 </r>
       <r>   -12.7444     0.0000     0.0000 </r>
       <r>   -12.6394     0.0000     0.0000 </r>
       <r>   -12.5343     0.0000     0.0000 </r>
       <r>   -12.4293     0.0000     0.0000 </r>
       <r>   -12.3242     0.0000     0.0000 </r>
       <r>   -12.2192     0.0000     0.0000 </r>
       <r>   -12.1141     0.0000     0.0000 </r>
       <r>   -12.0091     0.0000     0.0000 </r>
       <r>   -11.9040     0.0000     0.0000 </r>
       <r>   -11.7990     0.0000     0.0000 </r>
       <r>   -11.6939     0.0000     0.0000 </r>
       <r>   -11.5889     0.0000    10.0000 </r>
       <r>   -11.4838     0.0000    10.0000 </r>
       <r>   -11.3788     0.0000    10.0000 </r>
       <r>   -11.2737     0.0000    10.0000 </r>
       <r>   -11.1687     0.0000    10.0000 </r>
       <r>   -11.0636     0.0000    10.0000 </r>
       <r>   -10.9586     0.0000    10.0000 </r>
       <r>   -10.8535     0.0000    10.0000 </r>
       <r>   -10.7485     0.0000    10.0000 </r>
       <r>   -10.6434     0.0000    10.0000 </r>
       <r>   -10.5384     0.0000    10.0000 </r>
       <r>   -10.4333     0.0000    10.0000 </r>
       <r>   -10.3283     0.0000    10.0000 </r>
       <r>   -10.2232     0.0000    10.0000 </r>
       <r>   -10.1182     0.0000    10.0000 </r>
       <r>   -10.0131     0.0000    10.0000 </r>
       <r>    -9.9081     0.0000    10.0000 </r>
       <r>    -9.8030     0.0000    10.0000 </r>
       <r>    -9.6980     0.0000    10.0000 </r>
       <r>    -9.5929     0.0000    10.0000 </r>
       <r>    -9.4878     0.0000    10.0000 </r>
       <r>    -9.3828     0.0000    10.0000 </r>
       <r>    -9.2777     0.0000    10.0000 </r>
       <r>    -9.1727     0.0000    10.0000 </r>
       <r>    -9.0676     0.0000    10.0000 </r>
       <r>    -8.9626     0.0000    10.0000 </r>
       <r>    -8.8575     0.0000    10.0000 </r>
       <r>    -8.7525     0.0000    10.0000 </r>
       <r>    -8.6474     0.0000    10.0000 </r>
       <r>    -8.5424     0.0000    10.0000 </r>
       <r>    -8.4373     0.0000    10.0000 </r>
       <r>    -8.3323     0.0000    10.0000 </r>
       <r>    -8.2272     0.0000    10.0000 </r>
       <r>    -8.1222     0.0000    10.0000 </r>
       <r>    -8.0171     0.0000    10.0000 </r>
       <r>    -7.9121     0.0000    10.0000 </r>
       <r>    -7.8070     0.0000    10.0000 </r>
       <r>    -7.7020     0.0000    10.0000 </r>
       <r>    -7.5969     0.0000    10.0000 </r>
       <r>    -7.4919     0.0000    10.0000 </r>
       <r>    -7.3868     0.0000    10.0000 </r>
       <r>    -7.2818     0.0000    10.0000 </r>
       <r>    -7.1767     0.0000    10.0000 </r>
       <r>    -7.0717     0.0000    10.0000 </r>
       <r>    -6.9666     0.0000    10.0000 </r>
       <r>    -6.8616     0.0000    10.0000 </r>
       <r>    -6.7565     0.0000    10.0000 </r>
       <r>    -6.6515     0.0000    10.0000 </r>
       <r>    -6.5464     0.1618    10.0064 </r>
       <r>    -6.4414     0.2932    10.0316 </r>
       <r>    -6.3363     0.3980    10.0676 </r>
       <r>    -6.2313     0.4745    10.1135 </r>
       <r>    -6.1262     0.5646    10.1680 </r>
       <r>    -6.0212     0.6456    10.2315 </r>
       <r>    -5.9161     0.7376    10.3040 </r>
       <r>    -5.8110     0.8432    10.3869 </r>
       <r>    -5.7060     0.9689    10.4819 </r>
       <r>    -5.6009     1.1160    10.5912 </r>
       <r>    -5.4959     1.3586    10.7204 </r>
       <r>    -5.3908     1.7246    10.8810 </r>
       <r>    -5.2858     2.7288    11.1024 </r>
       <r>    -5.1807     2.7703    11.3873 </r>
       <r>    -5.0757     3.6808    11.7343 </r>
       <r>    -4.9706     0.0000    12.0000 </r>
       <r>    -4.8656     0.0000    12.0000 </r>
       <r>    -4.7605     0.0000    12.0000 </r>
       <r>    -4.6555     0.0000    12.0000 </r>
       <r>    -4.5504     0.0000    12.0000 </r>
       <r>    -4.4454     0.0000    12.0000 </r>
       <r>    -4.3403     0.0000    12.0000 </r>
       <r>    -4.2353     0.0000    12.0000 </r>
       <r>    -4.1302     0.0000    12.0000 </r>
       <r>    -4.0252     0.0000    12.0000 </r>
       <r>    -3.9201     0.0000    12.0000 </r>
       <r>    -3.8151     0.0000    12.0000 </r>
       <r>    -3.7100     0.0000    12.0000 </r>
       <r>    -3.6050     0.0000    12.0000 </r>
       <r>    -3.4999     0.0000    12.0000 </r>
       <r>    -3.3949     0.0000    12.0000 </r>
       <r>    -3.2898     0.5141    12.0023 </r>
       <r>    -3.1848     0.8279    12.0558 </r>
       <r>    -3.0797     1.2283    12.1599 </r>
       <r>    -2.9747     2.5971    12.3413 </r>
       <r>    -2.8696     2.5481    12.6241 </r>
       <r>    -2.7646     2.0075    12.8779 </r>
       <r>    -2.6595     1.6243    13.0645 </r>
       <r>    -2.5545     1.3845    13.2216 </r>
       <r>    -2.4494     1.2995    13.3632 </r>
       <r>    -2.3444     1.1621    13.4911 </r>
       <r>    -2.2393     0.9258    13.6113 </r>
       <r>    -2.1342     0.5983    13.6846 </r>
       <r>    -2.0292     0.5048    13.7424 </r>
       <r>    -1.9241     0.4092    13.7903 </r>
       <r>    -1.8191     0.3391    13.8289 </r>
       <r>    -1.7140     0.2976    13.8624 </r>
       <r>    -1.6090     0.2558    13.8915 </r>
       <r>    -1.5039     0.2138    13.9161 </r>
       <r>    -1.3989     0.1799    13.9366 </r>
       <r>    -1.2938     0.1525    13.9540 </r>
       <r>    -1.1888     0.1263    13.9686 </r>
       <r>    -1.0837     0.1001    13.9805 </r>
       <r>    -0.9787     0.0739    13.9897 </r>
       <r>    -0.8736     0.0541    13.9962 </r>
       <r>    -0.7686     0.0092    13.9998 </r>
       <r>    -0.6635     0.0000    14.0000 </r>
       <r>    -0.5585     0.0000    14.0000 </r>
       <r>    -0.4534     0.0000    14.0000 </r>
       <r>    -0.3484     0.0000    14.0000 </r>
       <r>    -0.2433     0.0000    14.0000 </r>
       <r>    -0.1383     0.0000    14.0000 </r>
       <r>    -0.0332     0.0000    14.0000 </r>
       <r>     0.0718     0.0000    14.0000 </r>
       <r>     0.1769     0.0000    14.0000 </r>
       <r>     0.2819     0.0000    14.0000 </r>
       <r>     0.3870     0.0000    14.0000 </r>
       <r>     0.4920     0.0000    14.0000 </r>
       <r>     0.5971     0.0000    14.0000 </r>
       <r>     0.7021     0.0000    14.0000 </r>
       <r>     0.8072     0.0000    14.0000 </r>
       <r>     0.9122     0.0000    14.0000 </r>
       <r>     1.0173     0.2257    14.0138 </r>
       <r>     1.1223     0.3816    14.0480 </r>
       <r>     1.2274     0.4655    14.0913 </r>
       <r>     1.3325     0.5870    14.1478 </r>
       <r>     1.4375     0.6393    14.2116 </r>
       <r>     1.5426     0.7800    14.2853 </r>
       <r>     1.6476     0.8460    14.3770 </r>
       <r>     1.7527     0.8377    14.4654 </r>
       <r>     1.8577     0.9521    14.5584 </r>
       <r>     1.9628     1.0776    14.6650 </r>
       <r>     2.0678     1.1626    14.7825 </r>
       <r>     2.1729     1.2684    14.9099 </r>
       <r>     2.2779     1.3995    15.0498 </r>
       <r>     2.3830     1.5945    15.2065 </r>
       <r>     2.4880     1.8519    15.3851 </r>
       <r>     2.5931     2.1209    15.5945 </r>
       <r>     2.6981     1.9381    15.8015 </r>
       <r>     2.8032     2.0104    16.0060 </r>
       <r>     2.9082     1.9762    16.2161 </r>
       <r>     3.0133     1.9327    16.4214 </r>
       <r>     3.1183     1.9548    16.6258 </r>
       <r>     3.2234     2.0134    16.8347 </r>
       <r>     3.3284     2.0047    17.0461 </r>
       <r>     3.4335     1.9902    17.2577 </r>
       <r>     3.5385     1.9876    17.4655 </r>
       <r>     3.6436     2.0252    17.6761 </r>
       <r>     3.7486     2.0928    17.8964 </r>
       <r>     3.8537     2.1764    18.1250 </r>
       <r>     3.9587     2.0640    18.3442 </r>
       <r>     4.0638     2.0657    18.5610 </r>
       <r>     4.1688     2.0109    18.7753 </r>
       <r>     4.2739     1.6864    18.9725 </r>
       <r>     4.3789     1.6002    19.1400 </r>
       <r>     4.4840     2.3262    19.3420 </r>
       <r>     4.5890     2.8764    19.6234 </r>
       <r>     4.6941     1.7396    19.8852 </r>
       <r>     4.7991     0.4862    19.9813 </r>
       <r>     4.9042     0.0270    19.9992 </r>
       <r>     5.0093     0.0000    20.0000 </r>
       <r>     5.1143     0.0000    20.0000 </r>
       <r>     5.2194     0.0000    20.0000 </r>
       <r>     5.3244     0.0000    20.0000 </r>
       <r>     5.4295     0.0000    20.0000 </r>
       <r>     5.5345     0.0000    20.0000 </r>
       <r>     5.6396     0.0000    20.0000 </r>
       <r>     5.7446     0.0000    20.0000 </r>
       <r>     5.8497     0.0000    20.0000 </r>
       <r>     5.9547     0.0269    20.0009 </r>
       <r>     6.0598     0.0872    20.0067 </r>
       <r>     6.1648     0.2368    20.0219 </r>
       <r>     6.2699     0.4869    20.0662 </r>
       <r>     6.3749     0.6607    20.1193 </r>
       <r>     6.4800     1.3301    20.2259 </r>
       <r>     6.5850     1.7256    20.3937 </r>
       <r>     6.6901     2.0198    20.5957 </r>
       <r>     6.7951     2.0567    20.8118 </r>
       <r>     6.9002     1.8518    21.0190 </r>
       <r>     7.0052     1.7076    21.2054 </r>
       <r>     7.1103     1.5881    21.3785 </r>
       <r>     7.2153     1.4685    21.5391 </r>
       <r>     7.3204     1.3769    21.6880 </r>
       <r>     7.4254     1.3280    21.8299 </r>
       <r>     7.5305     1.2996    21.9678 </r>
       <r>     7.6355     1.2837    22.1034 </r>
       <r>     7.7406     1.2746    22.2377 </r>
       <r>     7.8456     1.2721    22.3714 </r>
       <r>     7.9507     1.2789    22.5053 </r>
       <r>     8.0557     1.2948    22.6404 </r>
       <r>     8.1608     1.3135    22.7773 </r>
       <r>     8.2658     1.3453    22.9168 </r>
       <r>     8.3709     1.3875    23.0604 </r>
       <r>     8.4759     1.4271    23.2082 </r>
       <r>     8.5810     1.5575    23.3628 </r>
       <r>     8.6861     2.0042    23.5448 </r>
       <r>     8.7911     1.9522    23.7700 </r>
       <r>     8.8962     1.6597    23.9566 </r>
       <r>     9.0012     2.0345    24.1494 </r>
       <r>     9.1063     2.0056    24.3625 </r>
       <r>     9.2113     2.2581    24.6118 </r>
       <r>     9.3164     1.7237    24.8176 </r>
       <r>     9.4214     1.3170    24.9709 </r>
       <r>     9.5265     1.2593    25.1055 </r>
       <r>     9.6315     1.2330    25.2362 </r>
       <r>     9.7366     1.3264    25.3691 </r>
       <r>     9.8416     1.3535    25.5100 </r>
       <r>     9.9467     1.4300    25.6559 </r>
       <r>    10.0517     1.4875    25.8135 </r>
       <r>    10.1568     1.6406    25.9763 </r>
       <r>    10.2618     1.5370    26.1518 </r>
       <r>    10.3669     1.3720    26.3066 </r>
       <r>    10.4719     1.2086    26.4413 </r>
       <r>    10.5770     1.2095    26.5673 </r>
       <r>    10.6820     1.3362    26.6994 </r>
       <r>    10.7871     1.3126    26.8397 </r>
       <r>    10.8921     1.2840    26.9796 </r>
       <r>    10.9972     1.1209    27.1029 </r>
       <r>    11.1022     1.1534    27.2210 </r>
       <r>    11.2073     1.1024    27.3384 </r>
       <r>    11.3123     1.1939    27.4582 </r>
       <r>    11.4174     1.1372    27.5860 </r>
       <r>    11.5224     0.8851    27.6925 </r>
       <r>    11.6275     0.8668    27.7840 </r>
       <r>    11.7325     0.8961    27.8763 </r>
       <r>    11.8376     0.9394    27.9726 </r>
       <r>    11.9426     0.8239    28.0714 </r>
       <r>    12.0477     0.9338    28.1679 </r>
       <r>    12.1527     0.9950    28.2696 </r>
       <r>    12.2578     0.9454    28.3709 </r>
       <r>    12.3629     1.0180    28.4737 </r>
       <r>    12.4679     1.0439    28.5824 </r>
       <r>    12.5730     1.0663    28.6927 </r>
       <r>    12.6780     1.1192    28.8080 </r>
       <r>    12.7831     1.1158    28.9249 </r>
       <r>    12.8881     1.1204    29.0425 </r>
       <r>    12.9932     1.1479    29.1612 </r>
       <r>    13.0982     1.1607    29.2812 </r>
       <r>    13.2033     1.2790    29.4074 </r>
       <r>    13.3083     1.3122    29.5444 </r>
       <r>    13.4134     1.3195    29.6814 </r>
       <r>    13.5184     1.3124    29.8196 </r>
       <r>    13.6235     1.3278    29.9579 </r>
       <r>    13.7285     1.4294    30.1016 </r>
       <r>    13.8336     1.4862    30.2561 </r>
       <r>    13.9386     1.5083    30.4138 </r>
       <r>    14.0437     1.7403    30.5826 </r>
       <r>    14.1487     1.6836    30.7640 </r>
       <r>    14.2538     1.5343    30.9340 </r>
       <r>    14.3588     1.2486    31.0809 </r>
       <r>    14.4639     1.0995    31.2018 </r>
       <r>    14.5689     0.9078    31.3068 </r>
       <r>    14.6740     0.8267    31.3976 </r>
       <r>    14.7790     0.8168    31.4837 </r>
       <r>    14.8841     0.8365    31.5713 </r>
       <r>    14.9891     0.9060    31.6594 </r>
       <r>    15.0942     0.9554    31.7617 </r>
       <r>    15.1992     0.5877    31.8413 </r>
       <r>    15.3043     0.4537    31.8952 </r>
       <r>    15.4093     0.3107    31.9360 </r>
       <r>    15.5144     0.2228    31.9641 </r>
       <r>    15.6194     0.1302    31.9825 </r>
       <r>    15.7245     0.0744    31.9966 </r>
       <r>    15.8296     0.0000    32.0000 </r>
       <r>    15.9346     0.0000    32.0000 </r>
       <r>    16.0397     0.0000    32.0000 </r>
       <r>    16.1447     0.0000    32.0000 </r>
       <r>    16.2498     0.0000    32.0000 </r>
       <r>    16.3548     0.0000    32.0000 </r>
       <r>    16.4599     0.0000    32.0000 </r>
       <r>    16.5649     0.0000    32.0000 </r>
       <r>    16.6700     0.0000    32.0000 </r>
       <r>    16.7750     0.0000    32.0000 </r>
       <r>    16.8801     0.0000    32.0000 </r>
       <r>    16.9851     0.0000    32.0000 </r>
       <r>    17.0902     0.0000    32.0000 </r>
       <r>    17.1952     0.0000    32.0000 </r>
       <r>    17.3003     0.0000    32.0000 </r>
       <r>    17.4053     0.0000    32.0000 </r>
       <r>    17.5104     0.0000    32.0000 </r>
       <r>    17.6154     0.0000    32.0000 </r>
       <r>    17.7205     0.0000    32.0000 </r>
       <r>    17.8255     0.0000    32.0000 </r>
      </set>
     </set>
    </array>
   </total>
  </dos>
 </calculation>
 <structure name="finalpos" >
  <crystal>
   <varray name="basis" >
    <v>       0.00000000       3.28431199       3.28431199 </v>
    <v>       3.28431199       0.00000000       3.28431199 </v>
    <v>       3.28431199       3.28431199       0.00000000 </v>
   </varray>
   <i name="volume">     70.85381045 </i>
   <varray name="rec_basis" >
    <v>      -0.15223889       0.15223889       0.15223889 </v>
    <v>       0.15223889      -0.15223889       0.15223889 </v>
    <v>       0.15223889       0.15223889      -0.15223889 </v>
   </varray>
  </crystal>
  <varray name="positions" >
   <v>       0.00000000       0.00000000       0.00000000 </v>
   <v>       0.50000000       0.50000000       0.50000000 </v>
  </varray>
 </structure>
</modeling>
