<?xml version="1.0" encoding="ISO-8859-1"?>
<modeling>
 <generator>
  <i name="program" type="string">vasp </i>
  <i name="version" type="string">5.4.4.18Apr17-6-g9f103f2a35  </i>
  <i name="subversion" type="string">(build Mar 20 2018 18:01:20) complex            parallel </i>
  <i name="platform" type="string">LinuxGNU </i>
  <i name="date" type="string">2020 04 18 </i>
  <i name="time" type="string">12:30:03 </i>
 </generator>
 <incar>
  <i type="string" name="SYSTEM"> SnSe</i>
  <i type="int" name="ISTART">     1</i>
  <i type="string" name="PREC">accurate</i>
  <i type="string" name="ALGO"> A</i>
  <i type="logical" name="ADDGRID"> T  </i>
  <i type="int" name="ICHARG">    11</i>
  <i name="EDIFF">      0.00000010</i>
  <i name="ENCUT">    600.00000000</i>
  <i type="int" name="NBANDS">    60</i>
  <i type="string" name="LREAL"> Auto</i>
  <i type="logical" name="LPLANE"> T  </i>
  <i type="int" name="ISMEAR">     0</i>
  <i name="SIGMA">      0.05000000</i>
  <i type="int" name="LMAXMIX">     4</i>
  <v type="int" name="KPOINT_BSE">    -1     0     0     0</v>
 </incar>
 <structure name="primitive_cell" >
  <crystal>
   <varray name="basis" >
    <v>       4.20759812       0.00000000       0.00000000 </v>
    <v>       0.00000000       4.56286825       0.00000000 </v>
    <v>       0.00000000       0.00000000      11.78411723 </v>
   </varray>
   <i name="volume">    226.23991848 </i>
   <varray name="rec_basis" >
    <v>       0.23766528      -0.00000000       0.00000000 </v>
    <v>       0.00000000       0.21916039       0.00000000 </v>
    <v>      -0.00000000      -0.00000000       0.08485998 </v>
   </varray>
  </crystal>
  <varray name="positions" >
   <v>       0.25000000       0.11535153       0.12105944 </v>
   <v>       0.25000000       0.02384045       0.35487953 </v>
   <v>      -0.25000000      -0.47615955       0.14512047 </v>
   <v>       0.25000000       0.47615955      -0.14512047 </v>
   <v>      -0.25000000      -0.11535153      -0.12105944 </v>
   <v>      -0.25000000      -0.38464847       0.37894056 </v>
   <v>       0.25000000       0.38464847      -0.37894056 </v>
   <v>      -0.25000000      -0.02384045      -0.35487953 </v>
  </varray>
 </structure>
 <varray name="primitive_index" >
  <v type="int" >        1 </v>
  <v type="int" >        7 </v>
  <v type="int" >        5 </v>
  <v type="int" >        6 </v>
  <v type="int" >        2 </v>
  <v type="int" >        3 </v>
  <v type="int" >        4 </v>
  <v type="int" >        8 </v>
 </varray>
 <kpoints>
  <varray name="kpointlist" >
   <v>       0.00000000       0.40476190       0.50000000 </v>
   <v>      -0.02530948       0.40476190       0.50000000 </v>
   <v>      -0.01265474       0.40476190       0.50000000 </v>
   <v>       0.01265474       0.40476190       0.50000000 </v>
   <v>       0.02530948       0.40476190       0.50000000 </v>
   <v>       0.00000000       0.37731540       0.50000000 </v>
   <v>       0.00000000       0.39103865       0.50000000 </v>
   <v>       0.00000000       0.41848515       0.50000000 </v>
   <v>       0.00000000       0.43220840       0.50000000 </v>
   <v>       0.00000000       0.40476190       0.42911635 </v>
   <v>       0.00000000       0.40476190       0.46455818 </v>
   <v>       0.00000000       0.40476190       0.53544182 </v>
   <v>       0.00000000       0.40476190       0.57088365 </v>
   <v>      -0.02530948       0.37731540       0.50000000 </v>
   <v>      -0.01265474       0.37731540       0.50000000 </v>
   <v>       0.01265474       0.37731540       0.50000000 </v>
   <v>       0.02530948       0.37731540       0.50000000 </v>
   <v>      -0.02530948       0.39103865       0.50000000 </v>
   <v>      -0.01265474       0.39103865       0.50000000 </v>
   <v>       0.01265474       0.39103865       0.50000000 </v>
   <v>       0.02530948       0.39103865       0.50000000 </v>
   <v>      -0.02530948       0.41848515       0.50000000 </v>
   <v>      -0.01265474       0.41848515       0.50000000 </v>
   <v>       0.01265474       0.41848515       0.50000000 </v>
   <v>       0.02530948       0.41848515       0.50000000 </v>
   <v>      -0.02530948       0.43220840       0.50000000 </v>
   <v>      -0.01265474       0.43220840       0.50000000 </v>
   <v>       0.01265474       0.43220840       0.50000000 </v>
   <v>       0.02530948       0.43220840       0.50000000 </v>
   <v>      -0.02530948       0.40476190       0.42911635 </v>
   <v>      -0.01265474       0.40476190       0.42911635 </v>
   <v>       0.01265474       0.40476190       0.42911635 </v>
   <v>       0.02530948       0.40476190       0.42911635 </v>
   <v>      -0.02530948       0.40476190       0.46455818 </v>
   <v>      -0.01265474       0.40476190       0.46455818 </v>
   <v>       0.01265474       0.40476190       0.46455818 </v>
   <v>       0.02530948       0.40476190       0.46455818 </v>
   <v>      -0.02530948       0.40476190       0.53544182 </v>
   <v>      -0.01265474       0.40476190       0.53544182 </v>
   <v>       0.01265474       0.40476190       0.53544182 </v>
   <v>       0.02530948       0.40476190       0.53544182 </v>
   <v>      -0.02530948       0.40476190       0.57088365 </v>
   <v>      -0.01265474       0.40476190       0.57088365 </v>
   <v>       0.01265474       0.40476190       0.57088365 </v>
   <v>       0.02530948       0.40476190       0.57088365 </v>
   <v>       0.00000000       0.37731540       0.42911635 </v>
   <v>       0.00000000       0.39103865       0.42911635 </v>
   <v>       0.00000000       0.41848515       0.42911635 </v>
   <v>       0.00000000       0.43220840       0.42911635 </v>
   <v>       0.00000000       0.37731540       0.46455818 </v>
   <v>       0.00000000       0.39103865       0.46455818 </v>
   <v>       0.00000000       0.41848515       0.46455818 </v>
   <v>       0.00000000       0.43220840       0.46455818 </v>
   <v>       0.00000000       0.37731540       0.53544182 </v>
   <v>       0.00000000       0.39103865       0.53544182 </v>
   <v>       0.00000000       0.41848515       0.53544182 </v>
   <v>       0.00000000       0.43220840       0.53544182 </v>
   <v>       0.00000000       0.37731540       0.57088365 </v>
   <v>       0.00000000       0.39103865       0.57088365 </v>
   <v>       0.00000000       0.41848515       0.57088365 </v>
   <v>       0.00000000       0.43220840       0.57088365 </v>
  </varray>
  <varray name="weights" >
   <v>       0.01639344 </v>
   <v>       0.01639344 </v>
   <v>       0.01639344 </v>
   <v>       0.01639344 </v>
   <v>       0.01639344 </v>
   <v>       0.01639344 </v>
   <v>       0.01639344 </v>
   <v>       0.01639344 </v>
   <v>       0.01639344 </v>
   <v>       0.01639344 </v>
   <v>       0.01639344 </v>
   <v>       0.01639344 </v>
   <v>       0.01639344 </v>
   <v>       0.01639344 </v>
   <v>       0.01639344 </v>
   <v>       0.01639344 </v>
   <v>       0.01639344 </v>
   <v>       0.01639344 </v>
   <v>       0.01639344 </v>
   <v>       0.01639344 </v>
   <v>       0.01639344 </v>
   <v>       0.01639344 </v>
   <v>       0.01639344 </v>
   <v>       0.01639344 </v>
   <v>       0.01639344 </v>
   <v>       0.01639344 </v>
   <v>       0.01639344 </v>
   <v>       0.01639344 </v>
   <v>       0.01639344 </v>
   <v>       0.01639344 </v>
   <v>       0.01639344 </v>
   <v>       0.01639344 </v>
   <v>       0.01639344 </v>
   <v>       0.01639344 </v>
   <v>       0.01639344 </v>
   <v>       0.01639344 </v>
   <v>       0.01639344 </v>
   <v>       0.01639344 </v>
   <v>       0.01639344 </v>
   <v>       0.01639344 </v>
   <v>       0.01639344 </v>
   <v>       0.01639344 </v>
   <v>       0.01639344 </v>
   <v>       0.01639344 </v>
   <v>       0.01639344 </v>
   <v>       0.01639344 </v>
   <v>       0.01639344 </v>
   <v>       0.01639344 </v>
   <v>       0.01639344 </v>
   <v>       0.01639344 </v>
   <v>       0.01639344 </v>
   <v>       0.01639344 </v>
   <v>       0.01639344 </v>
   <v>       0.01639344 </v>
   <v>       0.01639344 </v>
   <v>       0.01639344 </v>
   <v>       0.01639344 </v>
   <v>       0.01639344 </v>
   <v>       0.01639344 </v>
   <v>       0.01639344 </v>
   <v>       0.01639344 </v>
  </varray>
 </kpoints>
 <parameters>
  <separator name="general" >
   <i type="string" name="SYSTEM">SnSe</i>
   <i type="logical" name="LCOMPAT"> F  </i>
  </separator>
  <separator name="electronic" >
   <i type="string" name="PREC">accura</i>
   <i name="ENMAX">    600.00000000</i>
   <i name="ENAUG">    446.84200000</i>
   <i name="EDIFF">      0.00000010</i>
   <i type="int" name="IALGO">    58</i>
   <i type="int" name="IWAVPR">    10</i>
   <i type="int" name="NBANDS">    60</i>
   <i name="NELECT">     80.00000000</i>
   <i type="int" name="TURBO">     0</i>
   <i type="int" name="IRESTART">     0</i>
   <i type="int" name="NREBOOT">     0</i>
   <i type="int" name="NMIN">     0</i>
   <i name="EREF">      0.00000000</i>
   <separator name="electronic smearing" >
    <i type="int" name="ISMEAR">     0</i>
    <i name="SIGMA">      0.05000000</i>
    <i name="KSPACING">      0.50000000</i>
    <i type="logical" name="KGAMMA"> T  </i>
   </separator>
   <separator name="electronic projectors" >
    <i type="logical" name="LREAL"> T  </i>
    <v name="ROPT">     -0.00025000     -0.00025000</v>
    <i type="int" name="LMAXPAW">  -100</i>
    <i type="int" name="LMAXMIX">     4</i>
    <i type="logical" name="NLSPLINE"> F  </i>
   </separator>
   <separator name="electronic startup" >
    <i type="int" name="ISTART">     1</i>
    <i type="int" name="ICHARG">    11</i>
    <i type="int" name="INIWAV">     1</i>
   </separator>
   <separator name="electronic spin" >
    <i type="int" name="ISPIN">     1</i>
    <i type="logical" name="LNONCOLLINEAR"> F  </i>
    <v name="MAGMOM">      1.00000000      1.00000000      1.00000000      1.00000000      1.00000000      1.00000000      1.00000000      1.00000000</v>
    <i name="NUPDOWN">     -1.00000000</i>
    <i type="logical" name="LSORBIT"> F  </i>
    <v name="SAXIS">      0.00000000      0.00000000      1.00000000</v>
    <i type="logical" name="LSPIRAL"> F  </i>
    <v name="QSPIRAL">      0.00000000      0.00000000      0.00000000</v>
    <i type="logical" name="LZEROZ"> F  </i>
   </separator>
   <separator name="electronic exchange-correlation" >
    <i type="logical" name="LASPH"> F  </i>
    <i type="logical" name="LMETAGGA"> F  </i>
   </separator>
   <separator name="electronic convergence" >
    <i type="int" name="NELM">    60</i>
    <i type="int" name="NELMDL">     0</i>
    <i type="int" name="NELMIN">     2</i>
    <i name="ENINI">    600.00000000</i>
    <separator name="electronic convergence detail" >
     <i type="logical" name="LDIAG"> T  </i>
     <i type="logical" name="LSUBROT"> F  </i>
     <i name="WEIMIN">      0.00000000</i>
     <i name="EBREAK">      0.00000000</i>
     <i name="DEPER">      0.30000000</i>
     <i type="int" name="NRMM">     4</i>
     <i name="TIME">      0.40000000</i>
    </separator>
   </separator>
   <separator name="electronic mixer" >
    <i name="AMIX">      0.40000000</i>
    <i name="BMIX">      1.00000000</i>
    <i name="AMIN">      0.10000000</i>
    <i name="AMIX_MAG">      1.60000000</i>
    <i name="BMIX_MAG">      1.00000000</i>
    <separator name="electronic mixer details" >
     <i type="int" name="IMIX">     4</i>
     <i type="logical" name="MIXFIRST"> F  </i>
     <i type="int" name="MAXMIX">   -45</i>
     <i name="WC">    100.00000000</i>
     <i type="int" name="INIMIX">     1</i>
     <i type="int" name="MIXPRE">     1</i>
     <i type="int" name="MREMOVE">     5</i>
    </separator>
   </separator>
   <separator name="electronic dipolcorrection" >
    <i type="logical" name="LDIPOL"> F  </i>
    <i type="logical" name="LMONO"> F  </i>
    <i type="int" name="IDIPOL">     0</i>
    <i name="EPSILON">      1.00000000</i>
    <v name="DIPOL">   -100.00000000   -100.00000000   -100.00000000</v>
    <i name="EFIELD">      0.00000000</i>
   </separator>
  </separator>
  <separator name="grids" >
   <i type="int" name="NGX">    36</i>
   <i type="int" name="NGY">    36</i>
   <i type="int" name="NGZ">    96</i>
   <i type="int" name="NGXF">    72</i>
   <i type="int" name="NGYF">    72</i>
   <i type="int" name="NGZF">   192</i>
   <i type="logical" name="ADDGRID"> T  </i>
  </separator>
  <separator name="ionic" >
   <i type="int" name="NSW">     0</i>
   <i type="int" name="IBRION">    -1</i>
   <i type="int" name="MDALGO">     0</i>
   <i type="int" name="ISIF">     2</i>
   <i name="PSTRESS">      0.00000000</i>
   <i name="EDIFFG">      0.00000100</i>
   <i type="int" name="NFREE">     0</i>
   <i name="POTIM">      0.50000000</i>
   <i name="SMASS">     -3.00000000</i>
   <i name="SCALEE">      1.00000000</i>
  </separator>
  <separator name="ionic md" >
   <i name="TEBEG">      0.00010000</i>
   <i name="TEEND">      0.00010000</i>
   <i type="int" name="NBLOCK">     1</i>
   <i type="int" name="KBLOCK">     1</i>
   <i type="int" name="NPACO">   256</i>
   <i name="APACO">     16.00000000</i>
  </separator>
  <separator name="symmetry" >
   <i type="int" name="ISYM">     2</i>
   <i name="SYMPREC">      0.00001000</i>
  </separator>
  <separator name="dos" >
   <i type="int" name="LORBIT">     0</i>
   <v name="RWIGS">     -1.00000000     -1.00000000</v>
   <i type="int" name="NEDOS">   301</i>
   <i name="EMIN">     10.00000000</i>
   <i name="EMAX">    -10.00000000</i>
   <i name="EFERMI">      0.00000000</i>
  </separator>
  <separator name="writing" >
   <i type="int" name="NWRITE">     2</i>
   <i type="logical" name="LWAVE"> T  </i>
   <i type="logical" name="LDOWNSAMPLE"> F  </i>
   <i type="logical" name="LCHARG"> T  </i>
   <i type="logical" name="LPARD"> F  </i>
   <i type="logical" name="LVTOT"> F  </i>
   <i type="logical" name="LVHAR"> F  </i>
   <i type="logical" name="LELF"> F  </i>
   <i type="logical" name="LOPTICS"> F  </i>
   <v name="STM">      0.00000000      0.00000000      0.00000000      0.00000000      0.00000000      0.00000000      0.00000000</v>
  </separator>
  <separator name="performance" >
   <i type="int" name="NPAR">     4</i>
   <i type="int" name="NSIM">     4</i>
   <i type="int" name="NBLK">    -1</i>
   <i type="logical" name="LPLANE"> T  </i>
   <i type="logical" name="LSCALAPACK"> T  </i>
   <i type="logical" name="LSCAAWARE"> F  </i>
   <i type="logical" name="LSCALU"> F  </i>
   <i type="logical" name="LASYNC"> F  </i>
   <i type="logical" name="LORBITALREAL"> F  </i>
  </separator>
  <separator name="miscellaneous" >
   <i type="int" name="IDIOT">     3</i>
   <i type="int" name="ISPECIAL">     0</i>
   <i type="logical" name="LMUSIC"> F  </i>
   <v name="POMASS">    118.71000000     78.96000000</v>
   <v name="DARWINR">      0.00000000      0.00000000</v>
   <v name="DARWINV">      1.00000000      1.00000000</v>
   <i type="logical" name="LCORR"> T  </i>
  </separator>
  <i type="logical" name="GGA_COMPAT"> T  </i>
  <i type="logical" name="LBERRY"> F  </i>
  <i type="int" name="ICORELEVEL">     0</i>
  <i type="logical" name="LDAU"> F  </i>
  <i type="int" name="I_CONSTRAINED_M">     0</i>
  <separator name="electronic exchange-correlation" >
   <i type="string" name="GGA">--</i>
   <i type="int" name="VOSKOWN">     0</i>
   <i type="logical" name="LHFCALC"> F  </i>
   <i type="string" name="PRECFOCK"></i>
   <i type="logical" name="LSYMGRAD"> F  </i>
   <i type="logical" name="LHFONE"> F  </i>
   <i type="logical" name="LRHFCALC"> F  </i>
   <i type="logical" name="LTHOMAS"> F  </i>
   <i type="logical" name="LMODELHF"> F  </i>
   <i name="ENCUT4O">     -1.00000000</i>
   <i type="int" name="EXXOEP">     0</i>
   <i type="int" name="FOURORBIT">     0</i>
   <i name="AEXX">      0.00000000</i>
   <i name="HFALPHA">      0.00000000</i>
   <i name="MCALPHA">      0.00000000</i>
   <i name="ALDAX">      1.00000000</i>
   <i name="AGGAX">      1.00000000</i>
   <i name="ALDAC">      1.00000000</i>
   <i name="AGGAC">      1.00000000</i>
   <i type="int" name="NKREDX">     1</i>
   <i type="int" name="NKREDY">     1</i>
   <i type="int" name="NKREDZ">     1</i>
   <i type="logical" name="SHIFTRED"> F  </i>
   <i type="logical" name="ODDONLY"> F  </i>
   <i type="logical" name="EVENONLY"> F  </i>
   <i type="int" name="LMAXFOCK">     0</i>
   <i type="int" name="NMAXFOCKAE">     0</i>
   <i type="logical" name="LFOCKAEDFT"> F  </i>
   <i name="HFSCREEN">      0.00000000</i>
   <i name="HFSCREENC">      0.00000000</i>
   <i type="int" name="NBANDSGWLOW">     0</i>
  </separator>
  <separator name="vdW DFT" >
   <i type="logical" name="LUSE_VDW"> F  </i>
   <i name="Zab_VDW">     -0.84910000</i>
   <i name="PARAM1">      0.12340000</i>
   <i name="PARAM2">      1.00000000</i>
   <i name="PARAM3">      0.00000000</i>
  </separator>
  <separator name="model GW" >
   <i type="int" name="MODEL_GW">     0</i>
   <i name="MODEL_EPS0">     16.96799389</i>
   <i name="MODEL_ALPHA">      1.00000000</i>
  </separator>
  <separator name="linear response parameters" >
   <i type="logical" name="LEPSILON"> F  </i>
   <i type="logical" name="LRPA"> F  </i>
   <i type="logical" name="LNABLA"> F  </i>
   <i type="logical" name="LVEL"> F  </i>
   <i type="int" name="KINTER">     0</i>
   <i name="CSHIFT">      0.10000000</i>
   <i name="OMEGAMAX">     -1.00000000</i>
   <i name="DEG_THRESHOLD">      0.00200000</i>
   <i name="RTIME">     -0.10000000</i>
   <i name="WPLASMAI">      0.00000000</i>
   <v name="DFIELD">      0.00000000      0.00000000      0.00000000</v>
   <v name="WPLASMA">      0.00000000      0.00000000      0.00000000      0.00000000      0.00000000      0.00000000      0.00000000      0.00000000      0.00000000</v>
  </separator>
  <separator name="orbital magnetization" >
   <i type="logical" name="NUCIND"> F  </i>
   <v name="MAGPOS">      0.00000000      0.00000000      0.00000000</v>
   <i type="logical" name="LNICSALL"> T  </i>
   <i type="logical" name="ORBITALMAG"> F  </i>
   <i type="logical" name="LMAGBLOCH"> F  </i>
   <i type="logical" name="LCHIMAG"> F  </i>
   <i type="logical" name="LGAUGE"> T  </i>
   <i type="int" name="MAGATOM">     0</i>
   <v name="MAGDIPOL">      0.00000000      0.00000000      0.00000000</v>
   <v name="AVECCONST">      0.00000000      0.00000000      0.00000000</v>
  </separator>
  <separator name="response functions" >
   <i type="logical" name="LADDER"> F  </i>
   <i type="logical" name="LRPAFORCE"> F  </i>
   <i type="logical" name="LFXC"> F  </i>
   <i type="logical" name="LHARTREE"> T  </i>
   <i type="int" name="IBSE">     0</i>
   <v type="int" name="KPOINT">    -1     0     0     0</v>
   <i type="logical" name="LTCTE"> F  </i>
   <i type="logical" name="LTETE"> F  </i>
   <i type="logical" name="LTRIPLET"> F  </i>
   <i type="logical" name="LFXCEPS"> F  </i>
   <i type="logical" name="LFXHEG"> F  </i>
   <i type="int" name="NATURALO">     2</i>
   <i type="logical" name="L2ORDER"> F  </i>
   <i type="logical" name="LMP2LT"> F  </i>
   <i type="logical" name="LUSEW"> F  </i>
   <i name="ENCUTGW">     -2.00000000</i>
   <i name="ENCUTGWSOFT">     -2.00000000</i>
   <i name="ENCUTLF">     -1.00000000</i>
   <i type="int" name="LMAXMP2">    -1</i>
   <i name="SCISSOR">      0.00000000</i>
   <i type="int" name="NOMEGA">     0</i>
   <i type="int" name="NOMEGAR">     0</i>
   <i type="int" name="NBANDSGW">    -1</i>
   <i type="int" name="NBANDSO">    -1</i>
   <i type="int" name="NBANDSV">    -1</i>
   <i type="int" name="NELM">     1</i>
   <i type="int" name="NELMHF">     1</i>
   <i type="int" name="DIM">     3</i>
   <i type="int" name="ANTIRES">     0</i>
   <i name="OMEGAMAX">    -30.00000000</i>
   <i name="OMEGAMIN">    -30.00000000</i>
   <i name="OMEGATL">   -200.00000000</i>
   <i type="int" name="OMEGAGRID">   140</i>
   <i name="CSHIFT">     -0.10000000</i>
   <i type="logical" name="SELFENERGY"> F  </i>
   <i type="logical" name="LSPECTRAL"> F  </i>
   <i type="logical" name="LSPECTRALGW"> F  </i>
   <i type="logical" name="LSINGLES"> F  </i>
   <i type="logical" name="LFERMIGW"> F  </i>
   <i type="logical" name="ODDONLYGW"> F  </i>
   <i type="logical" name="EVENONLYGW"> F  </i>
   <i type="int" name="NKREDLFX">     1</i>
   <i type="int" name="NKREDLFY">     1</i>
   <i type="int" name="NKREDLFZ">     1</i>
   <i type="int" name="MAXMEM">  2800</i>
   <i type="int" name="TELESCOPE">     0</i>
   <i type="int" name="TAUPAR">     1</i>
   <i type="int" name="OMEGAPAR">    -1</i>
   <i name="LAMBDA">      1.00000000</i>
  </separator>
  <separator name="External order field" >
   <i name="OFIELD_KAPPA">      0.00000000</i>
   <v name="OFIELD_K">      0.00000000      0.00000000      0.00000000</v>
   <i name="OFIELD_Q6_NEAR">      0.00000000</i>
   <i name="OFIELD_Q6_FAR">      0.00000000</i>
   <i name="OFIELD_A">      0.00000000</i>
  </separator>
 </parameters>
 <atominfo>
  <atoms>       8 </atoms>
  <types>       2 </types>
  <array name="atoms" >
   <dimension dim="1">ion</dimension>
   <field type="string">element</field>
   <field type="int">atomtype</field>
   <set>
    <rc><c>Sn</c><c>   1</c></rc>
    <rc><c>Sn</c><c>   1</c></rc>
    <rc><c>Sn</c><c>   1</c></rc>
    <rc><c>Sn</c><c>   1</c></rc>
    <rc><c>Se</c><c>   2</c></rc>
    <rc><c>Se</c><c>   2</c></rc>
    <rc><c>Se</c><c>   2</c></rc>
    <rc><c>Se</c><c>   2</c></rc>
   </set>
  </array>
  <array name="atomtypes" >
   <dimension dim="1">type</dimension>
   <field type="int">atomspertype</field>
   <field type="string">element</field>
   <field>mass</field>
   <field>valence</field>
   <field type="string">pseudopotential</field>
   <set>
    <rc><c>   4</c><c>Sn</c><c>    118.71000000</c><c>     14.00000000</c><c>  PAW_PBE Sn_d 06Sep2000                </c></rc>
    <rc><c>   4</c><c>Se</c><c>     78.96000000</c><c>      6.00000000</c><c>  PAW_PBE Se 06Sep2000                  </c></rc>
   </set>
  </array>
 </atominfo>
 <structure name="initialpos" >
  <crystal>
   <varray name="basis" >
    <v>       4.20759812       0.00000000       0.00000000 </v>
    <v>       0.00000000       4.56286825       0.00000000 </v>
    <v>       0.00000000       0.00000000      11.78411723 </v>
   </varray>
   <i name="volume">    226.23991848 </i>
   <varray name="rec_basis" >
    <v>       0.23766528      -0.00000000       0.00000000 </v>
    <v>       0.00000000       0.21916039       0.00000000 </v>
    <v>      -0.00000000      -0.00000000       0.08485998 </v>
   </varray>
  </crystal>
  <varray name="positions" >
   <v>       0.25000000       0.11535153       0.12105944 </v>
   <v>       0.75000000       0.88464847       0.87894056 </v>
   <v>       0.75000000       0.61535153       0.37894056 </v>
   <v>       0.25000000       0.38464847       0.62105944 </v>
   <v>       0.75000000       0.52384045       0.14512047 </v>
   <v>       0.25000000       0.47615955       0.85487953 </v>
   <v>       0.25000000       0.02384045       0.35487953 </v>
   <v>       0.75000000       0.97615955       0.64512047 </v>
  </varray>
 </structure>
 <calculation>
  <scstep>
   <time name="total">   17.17   17.64</time>
   <energy>
    <i name="alphaZ">    195.34674365 </i>
    <i name="ewald">  -5851.63473896 </i>
    <i name="hartreedc">  -2436.24786775 </i>
    <i name="XCdc">    224.64732979 </i>
    <i name="pawpsdc">   8305.47088267 </i>
    <i name="pawaedc">  -8398.96257500 </i>
    <i name="eentropy">     -0.00000000 </i>
    <i name="bandstr">   -662.07858691 </i>
    <i name="atom">   8600.94477988 </i>
    <i name="e_fr_energy">    -22.51403264 </i>
    <i name="e_wo_entrp">    -22.51403264 </i>
    <i name="e_0_energy">    -22.51403264 </i>
   </energy>
  </scstep>
  <scstep>
   <time name="total">   14.13   14.63</time>
   <energy>
    <i name="e_fr_energy">    -22.51403285 </i>
    <i name="e_wo_entrp">    -22.51403285 </i>
    <i name="e_0_energy">    -22.51403285 </i>
   </energy>
  </scstep>
  <scstep>
   <time name="total">   18.95   19.42</time>
   <energy>
    <i name="alphaZ">    195.34674365 </i>
    <i name="ewald">  -5851.63473896 </i>
    <i name="hartreedc">  -2436.24786775 </i>
    <i name="XCdc">    224.64732979 </i>
    <i name="pawpsdc">   8305.47088267 </i>
    <i name="pawaedc">  -8398.96257500 </i>
    <i name="eentropy">     -0.00000000 </i>
    <i name="bandstr">   -662.07858719 </i>
    <i name="atom">   8600.94477988 </i>
    <i name="e_fr_energy">    -22.51403292 </i>
    <i name="e_wo_entrp">    -22.51403292 </i>
    <i name="e_0_energy">    -22.51403292 </i>
   </energy>
  </scstep>
  <structure>
   <crystal>
    <varray name="basis" >
     <v>       4.20759812       0.00000000       0.00000000 </v>
     <v>       0.00000000       4.56286825       0.00000000 </v>
     <v>       0.00000000       0.00000000      11.78411723 </v>
    </varray>
    <i name="volume">    226.23991848 </i>
    <varray name="rec_basis" >
     <v>       0.23766528      -0.00000000       0.00000000 </v>
     <v>       0.00000000       0.21916039       0.00000000 </v>
     <v>      -0.00000000      -0.00000000       0.08485998 </v>
    </varray>
   </crystal>
   <varray name="positions" >
    <v>       0.25000000       0.11535153       0.12105944 </v>
    <v>       0.75000000       0.88464847       0.87894056 </v>
    <v>       0.75000000       0.61535153       0.37894056 </v>
    <v>       0.25000000       0.38464847       0.62105944 </v>
    <v>       0.75000000       0.52384045       0.14512047 </v>
    <v>       0.25000000       0.47615955       0.85487953 </v>
    <v>       0.25000000       0.02384045       0.35487953 </v>
    <v>       0.75000000       0.97615955       0.64512047 </v>
   </varray>
  </structure>
  <varray name="forces" >
   <v>       0.00000000       1.05735965       0.21792056 </v>
   <v>      -0.00000000      -1.05735965      -0.21792056 </v>
   <v>       0.00000000       1.05735965      -0.21792056 </v>
   <v>      -0.00000000      -1.05735965       0.21792056 </v>
   <v>      -0.00000000      -1.07062572       2.14383042 </v>
   <v>       0.00000000       1.07062572      -2.14383042 </v>
   <v>      -0.00000000      -1.07062572      -2.14383042 </v>
   <v>       0.00000000       1.07062572       2.14383042 </v>
  </varray>
  <varray name="stress" >
   <v>     308.12519149       0.00000000       0.00000000 </v>
   <v>       0.00000000      51.86585978       0.00000000 </v>
   <v>       0.00000000       0.00000000     -83.71824720 </v>
  </varray>
  <energy>
   <i name="e_fr_energy">    -24.23368290 </i>
   <i name="e_wo_entrp">    -24.23368290 </i>
   <i name="e_0_energy">     -0.00000000 </i>
  </energy>
  <time name="totalsc">   79.75   82.27</time>
  <eigenvalues>
   <array>
    <dimension dim="1">band</dimension>
    <dimension dim="2">kpoint</dimension>
    <dimension dim="3">spin</dimension>
    <field>eigene</field>
    <field>occ</field>
    <set>
     <set comment="spin 1">
      <set comment="kpoint 1">
       <r>  -16.4747    1.0000 </r>
       <r>  -16.4747    1.0000 </r>
       <r>  -16.4710    1.0000 </r>
       <r>  -16.4710    1.0000 </r>
       <r>  -16.4690    1.0000 </r>
       <r>  -16.4690    1.0000 </r>
       <r>  -16.4661    1.0000 </r>
       <r>  -16.4661    1.0000 </r>
       <r>  -16.4422    1.0000 </r>
       <r>  -16.4422    1.0000 </r>
       <r>  -16.4415    1.0000 </r>
       <r>  -16.4415    1.0000 </r>
       <r>  -16.4384    1.0000 </r>
       <r>  -16.4384    1.0000 </r>
       <r>  -16.4176    1.0000 </r>
       <r>  -16.4176    1.0000 </r>
       <r>  -16.4150    1.0000 </r>
       <r>  -16.4150    1.0000 </r>
       <r>  -16.4074    1.0000 </r>
       <r>  -16.4074    1.0000 </r>
       <r>   -8.0597    1.0000 </r>
       <r>   -8.0597    1.0000 </r>
       <r>   -7.6497    1.0000 </r>
       <r>   -7.6497    1.0000 </r>
       <r>   -2.7122    1.0000 </r>
       <r>   -2.7122    1.0000 </r>
       <r>   -1.7379    1.0000 </r>
       <r>   -1.7379    1.0000 </r>
       <r>    1.8700    1.0000 </r>
       <r>    1.8700    1.0000 </r>
       <r>    2.6718    1.0000 </r>
       <r>    2.6718    1.0000 </r>
       <r>    2.6730    1.0000 </r>
       <r>    2.6730    1.0000 </r>
       <r>    3.2099    1.0000 </r>
       <r>    3.2099    1.0000 </r>
       <r>    4.0048    1.0000 </r>
       <r>    4.0048    1.0000 </r>
       <r>    4.6776    1.0000 </r>
       <r>    4.6776    1.0000 </r>
       <r>    6.0498    0.0000 </r>
       <r>    6.0498    0.0000 </r>
       <r>    6.7943    0.0000 </r>
       <r>    6.7943    0.0000 </r>
       <r>    6.8720    0.0000 </r>
       <r>    6.8720    0.0000 </r>
       <r>    7.9058    0.0000 </r>
       <r>    7.9058    0.0000 </r>
       <r>    8.1094    0.0000 </r>
       <r>    8.1094    0.0000 </r>
       <r>    9.5370    0.0000 </r>
       <r>    9.5370    0.0000 </r>
       <r>   11.9173    0.0000 </r>
       <r>   11.9173    0.0000 </r>
       <r>   12.6471    0.0000 </r>
       <r>   12.6471    0.0000 </r>
       <r>   13.2842    0.0000 </r>
       <r>   13.2850    0.0000 </r>
       <r>   13.3038    0.0000 </r>
       <r>   13.3042    0.0000 </r>
      </set>
      <set comment="kpoint 2">
       <r>  -16.4746    1.0000 </r>
       <r>  -16.4746    1.0000 </r>
       <r>  -16.4712    1.0000 </r>
       <r>  -16.4712    1.0000 </r>
       <r>  -16.4688    1.0000 </r>
       <r>  -16.4688    1.0000 </r>
       <r>  -16.4662    1.0000 </r>
       <r>  -16.4662    1.0000 </r>
       <r>  -16.4423    1.0000 </r>
       <r>  -16.4423    1.0000 </r>
       <r>  -16.4415    1.0000 </r>
       <r>  -16.4415    1.0000 </r>
       <r>  -16.4383    1.0000 </r>
       <r>  -16.4383    1.0000 </r>
       <r>  -16.4176    1.0000 </r>
       <r>  -16.4176    1.0000 </r>
       <r>  -16.4150    1.0000 </r>
       <r>  -16.4150    1.0000 </r>
       <r>  -16.4073    1.0000 </r>
       <r>  -16.4073    1.0000 </r>
       <r>   -8.0572    1.0000 </r>
       <r>   -8.0572    1.0000 </r>
       <r>   -7.6482    1.0000 </r>
       <r>   -7.6482    1.0000 </r>
       <r>   -2.7087    1.0000 </r>
       <r>   -2.7087    1.0000 </r>
       <r>   -1.7357    1.0000 </r>
       <r>   -1.7357    1.0000 </r>
       <r>    1.8640    1.0000 </r>
       <r>    1.8640    1.0000 </r>
       <r>    2.6154    1.0000 </r>
       <r>    2.6154    1.0000 </r>
       <r>    2.6785    1.0000 </r>
       <r>    2.6785    1.0000 </r>
       <r>    3.1951    1.0000 </r>
       <r>    3.1951    1.0000 </r>
       <r>    4.0332    1.0000 </r>
       <r>    4.0332    1.0000 </r>
       <r>    4.6531    1.0000 </r>
       <r>    4.6531    1.0000 </r>
       <r>    6.0784    0.0000 </r>
       <r>    6.0784    0.0000 </r>
       <r>    6.6789    0.0000 </r>
       <r>    6.6789    0.0000 </r>
       <r>    7.0219    0.0000 </r>
       <r>    7.0219    0.0000 </r>
       <r>    7.8340    0.0000 </r>
       <r>    7.8340    0.0000 </r>
       <r>    8.1955    0.0000 </r>
       <r>    8.1955    0.0000 </r>
       <r>    9.5333    0.0000 </r>
       <r>    9.5333    0.0000 </r>
       <r>   11.9302    0.0000 </r>
       <r>   11.9302    0.0000 </r>
       <r>   12.6196    0.0000 </r>
       <r>   12.6196    0.0000 </r>
       <r>   13.2541    0.0000 </r>
       <r>   13.2542    0.0000 </r>
       <r>   13.3275    0.0000 </r>
       <r>   13.3278    0.0000 </r>
      </set>
      <set comment="kpoint 3">
       <r>  -16.4747    1.0000 </r>
       <r>  -16.4747    1.0000 </r>
       <r>  -16.4710    1.0000 </r>
       <r>  -16.4710    1.0000 </r>
       <r>  -16.4689    1.0000 </r>
       <r>  -16.4689    1.0000 </r>
       <r>  -16.4661    1.0000 </r>
       <r>  -16.4661    1.0000 </r>
       <r>  -16.4422    1.0000 </r>
       <r>  -16.4422    1.0000 </r>
       <r>  -16.4415    1.0000 </r>
       <r>  -16.4415    1.0000 </r>
       <r>  -16.4384    1.0000 </r>
       <r>  -16.4384    1.0000 </r>
       <r>  -16.4176    1.0000 </r>
       <r>  -16.4176    1.0000 </r>
       <r>  -16.4150    1.0000 </r>
       <r>  -16.4150    1.0000 </r>
       <r>  -16.4074    1.0000 </r>
       <r>  -16.4074    1.0000 </r>
       <r>   -8.0591    1.0000 </r>
       <r>   -8.0591    1.0000 </r>
       <r>   -7.6493    1.0000 </r>
       <r>   -7.6493    1.0000 </r>
       <r>   -2.7113    1.0000 </r>
       <r>   -2.7113    1.0000 </r>
       <r>   -1.7373    1.0000 </r>
       <r>   -1.7373    1.0000 </r>
       <r>    1.8685    1.0000 </r>
       <r>    1.8685    1.0000 </r>
       <r>    2.6502    1.0000 </r>
       <r>    2.6502    1.0000 </r>
       <r>    2.6817    1.0000 </r>
       <r>    2.6817    1.0000 </r>
       <r>    3.2060    1.0000 </r>
       <r>    3.2060    1.0000 </r>
       <r>    4.0122    1.0000 </r>
       <r>    4.0122    1.0000 </r>
       <r>    4.6715    1.0000 </r>
       <r>    4.6715    1.0000 </r>
       <r>    6.0570    0.0000 </r>
       <r>    6.0570    0.0000 </r>
       <r>    6.7446    0.0000 </r>
       <r>    6.7446    0.0000 </r>
       <r>    6.9303    0.0000 </r>
       <r>    6.9303    0.0000 </r>
       <r>    7.8829    0.0000 </r>
       <r>    7.8829    0.0000 </r>
       <r>    8.1359    0.0000 </r>
       <r>    8.1359    0.0000 </r>
       <r>    9.5361    0.0000 </r>
       <r>    9.5361    0.0000 </r>
       <r>   11.9205    0.0000 </r>
       <r>   11.9205    0.0000 </r>
       <r>   12.6400    0.0000 </r>
       <r>   12.6400    0.0000 </r>
       <r>   13.2737    0.0000 </r>
       <r>   13.2790    0.0000 </r>
       <r>   13.3127    0.0000 </r>
       <r>   13.3153    0.0000 </r>
      </set>
      <set comment="kpoint 4">
       <r>  -16.4747    1.0000 </r>
       <r>  -16.4747    1.0000 </r>
       <r>  -16.4710    1.0000 </r>
       <r>  -16.4710    1.0000 </r>
       <r>  -16.4689    1.0000 </r>
       <r>  -16.4689    1.0000 </r>
       <r>  -16.4661    1.0000 </r>
       <r>  -16.4661    1.0000 </r>
       <r>  -16.4422    1.0000 </r>
       <r>  -16.4422    1.0000 </r>
       <r>  -16.4415    1.0000 </r>
       <r>  -16.4415    1.0000 </r>
       <r>  -16.4384    1.0000 </r>
       <r>  -16.4384    1.0000 </r>
       <r>  -16.4176    1.0000 </r>
       <r>  -16.4176    1.0000 </r>
       <r>  -16.4150    1.0000 </r>
       <r>  -16.4150    1.0000 </r>
       <r>  -16.4074    1.0000 </r>
       <r>  -16.4074    1.0000 </r>
       <r>   -8.0591    1.0000 </r>
       <r>   -8.0591    1.0000 </r>
       <r>   -7.6493    1.0000 </r>
       <r>   -7.6493    1.0000 </r>
       <r>   -2.7113    1.0000 </r>
       <r>   -2.7113    1.0000 </r>
       <r>   -1.7373    1.0000 </r>
       <r>   -1.7373    1.0000 </r>
       <r>    1.8685    1.0000 </r>
       <r>    1.8685    1.0000 </r>
       <r>    2.6502    1.0000 </r>
       <r>    2.6502    1.0000 </r>
       <r>    2.6817    1.0000 </r>
       <r>    2.6817    1.0000 </r>
       <r>    3.2060    1.0000 </r>
       <r>    3.2060    1.0000 </r>
       <r>    4.0122    1.0000 </r>
       <r>    4.0122    1.0000 </r>
       <r>    4.6715    1.0000 </r>
       <r>    4.6715    1.0000 </r>
       <r>    6.0570    0.0000 </r>
       <r>    6.0570    0.0000 </r>
       <r>    6.7446    0.0000 </r>
       <r>    6.7446    0.0000 </r>
       <r>    6.9303    0.0000 </r>
       <r>    6.9303    0.0000 </r>
       <r>    7.8829    0.0000 </r>
       <r>    7.8829    0.0000 </r>
       <r>    8.1359    0.0000 </r>
       <r>    8.1359    0.0000 </r>
       <r>    9.5361    0.0000 </r>
       <r>    9.5361    0.0000 </r>
       <r>   11.9205    0.0000 </r>
       <r>   11.9205    0.0000 </r>
       <r>   12.6400    0.0000 </r>
       <r>   12.6400    0.0000 </r>
       <r>   13.2740    0.0000 </r>
       <r>   13.2749    0.0000 </r>
       <r>   13.3127    0.0000 </r>
       <r>   13.3129    0.0000 </r>
      </set>
      <set comment="kpoint 5">
       <r>  -16.4746    1.0000 </r>
       <r>  -16.4746    1.0000 </r>
       <r>  -16.4712    1.0000 </r>
       <r>  -16.4712    1.0000 </r>
       <r>  -16.4688    1.0000 </r>
       <r>  -16.4688    1.0000 </r>
       <r>  -16.4662    1.0000 </r>
       <r>  -16.4662    1.0000 </r>
       <r>  -16.4423    1.0000 </r>
       <r>  -16.4423    1.0000 </r>
       <r>  -16.4415    1.0000 </r>
       <r>  -16.4415    1.0000 </r>
       <r>  -16.4383    1.0000 </r>
       <r>  -16.4383    1.0000 </r>
       <r>  -16.4176    1.0000 </r>
       <r>  -16.4176    1.0000 </r>
       <r>  -16.4150    1.0000 </r>
       <r>  -16.4150    1.0000 </r>
       <r>  -16.4073    1.0000 </r>
       <r>  -16.4073    1.0000 </r>
       <r>   -8.0572    1.0000 </r>
       <r>   -8.0572    1.0000 </r>
       <r>   -7.6482    1.0000 </r>
       <r>   -7.6482    1.0000 </r>
       <r>   -2.7087    1.0000 </r>
       <r>   -2.7087    1.0000 </r>
       <r>   -1.7357    1.0000 </r>
       <r>   -1.7357    1.0000 </r>
       <r>    1.8640    1.0000 </r>
       <r>    1.8640    1.0000 </r>
       <r>    2.6154    1.0000 </r>
       <r>    2.6154    1.0000 </r>
       <r>    2.6785    1.0000 </r>
       <r>    2.6785    1.0000 </r>
       <r>    3.1951    1.0000 </r>
       <r>    3.1951    1.0000 </r>
       <r>    4.0332    1.0000 </r>
       <r>    4.0332    1.0000 </r>
       <r>    4.6531    1.0000 </r>
       <r>    4.6531    1.0000 </r>
       <r>    6.0784    0.0000 </r>
       <r>    6.0784    0.0000 </r>
       <r>    6.6789    0.0000 </r>
       <r>    6.6789    0.0000 </r>
       <r>    7.0219    0.0000 </r>
       <r>    7.0219    0.0000 </r>
       <r>    7.8340    0.0000 </r>
       <r>    7.8340    0.0000 </r>
       <r>    8.1955    0.0000 </r>
       <r>    8.1955    0.0000 </r>
       <r>    9.5333    0.0000 </r>
       <r>    9.5333    0.0000 </r>
       <r>   11.9302    0.0000 </r>
       <r>   11.9302    0.0000 </r>
       <r>   12.6196    0.0000 </r>
       <r>   12.6196    0.0000 </r>
       <r>   13.2541    0.0000 </r>
       <r>   13.2544    0.0000 </r>
       <r>   13.3272    0.0000 </r>
       <r>   13.3276    0.0000 </r>
      </set>
      <set comment="kpoint 6">
       <r>  -16.4750    1.0000 </r>
       <r>  -16.4750    1.0000 </r>
       <r>  -16.4708    1.0000 </r>
       <r>  -16.4708    1.0000 </r>
       <r>  -16.4689    1.0000 </r>
       <r>  -16.4689    1.0000 </r>
       <r>  -16.4659    1.0000 </r>
       <r>  -16.4659    1.0000 </r>
       <r>  -16.4429    1.0000 </r>
       <r>  -16.4429    1.0000 </r>
       <r>  -16.4416    1.0000 </r>
       <r>  -16.4416    1.0000 </r>
       <r>  -16.4382    1.0000 </r>
       <r>  -16.4382    1.0000 </r>
       <r>  -16.4178    1.0000 </r>
       <r>  -16.4178    1.0000 </r>
       <r>  -16.4147    1.0000 </r>
       <r>  -16.4147    1.0000 </r>
       <r>  -16.4073    1.0000 </r>
       <r>  -16.4073    1.0000 </r>
       <r>   -8.1064    1.0000 </r>
       <r>   -8.1064    1.0000 </r>
       <r>   -7.6221    1.0000 </r>
       <r>   -7.6221    1.0000 </r>
       <r>   -2.6771    1.0000 </r>
       <r>   -2.6771    1.0000 </r>
       <r>   -1.6634    1.0000 </r>
       <r>   -1.6634    1.0000 </r>
       <r>    1.7718    1.0000 </r>
       <r>    1.7718    1.0000 </r>
       <r>    2.5947    1.0000 </r>
       <r>    2.5947    1.0000 </r>
       <r>    2.7421    1.0000 </r>
       <r>    2.7421    1.0000 </r>
       <r>    3.2307    1.0000 </r>
       <r>    3.2307    1.0000 </r>
       <r>    3.8925    1.0000 </r>
       <r>    3.8925    1.0000 </r>
       <r>    4.6398    1.0000 </r>
       <r>    4.6398    1.0000 </r>
       <r>    6.1143    0.0000 </r>
       <r>    6.1143    0.0000 </r>
       <r>    6.9227    0.0000 </r>
       <r>    6.9227    0.0000 </r>
       <r>    6.9411    0.0000 </r>
       <r>    6.9411    0.0000 </r>
       <r>    7.9131    0.0000 </r>
       <r>    7.9131    0.0000 </r>
       <r>    8.2235    0.0000 </r>
       <r>    8.2235    0.0000 </r>
       <r>    9.5360    0.0000 </r>
       <r>    9.5360    0.0000 </r>
       <r>   11.6227    0.0000 </r>
       <r>   11.6227    0.0000 </r>
       <r>   12.5418    0.0000 </r>
       <r>   12.5418    0.0000 </r>
       <r>   13.1916    0.0000 </r>
       <r>   13.1916    0.0000 </r>
       <r>   13.2370    0.0000 </r>
       <r>   13.2378    0.0000 </r>
      </set>
      <set comment="kpoint 7">
       <r>  -16.4748    1.0000 </r>
       <r>  -16.4748    1.0000 </r>
       <r>  -16.4709    1.0000 </r>
       <r>  -16.4709    1.0000 </r>
       <r>  -16.4689    1.0000 </r>
       <r>  -16.4689    1.0000 </r>
       <r>  -16.4660    1.0000 </r>
       <r>  -16.4660    1.0000 </r>
       <r>  -16.4425    1.0000 </r>
       <r>  -16.4425    1.0000 </r>
       <r>  -16.4415    1.0000 </r>
       <r>  -16.4415    1.0000 </r>
       <r>  -16.4383    1.0000 </r>
       <r>  -16.4383    1.0000 </r>
       <r>  -16.4177    1.0000 </r>
       <r>  -16.4177    1.0000 </r>
       <r>  -16.4149    1.0000 </r>
       <r>  -16.4149    1.0000 </r>
       <r>  -16.4074    1.0000 </r>
       <r>  -16.4074    1.0000 </r>
       <r>   -8.0827    1.0000 </r>
       <r>   -8.0827    1.0000 </r>
       <r>   -7.6358    1.0000 </r>
       <r>   -7.6358    1.0000 </r>
       <r>   -2.6959    1.0000 </r>
       <r>   -2.6959    1.0000 </r>
       <r>   -1.7026    1.0000 </r>
       <r>   -1.7026    1.0000 </r>
       <r>    1.8207    1.0000 </r>
       <r>    1.8207    1.0000 </r>
       <r>    2.6337    1.0000 </r>
       <r>    2.6337    1.0000 </r>
       <r>    2.7099    1.0000 </r>
       <r>    2.7099    1.0000 </r>
       <r>    3.2213    1.0000 </r>
       <r>    3.2213    1.0000 </r>
       <r>    3.9468    1.0000 </r>
       <r>    3.9468    1.0000 </r>
       <r>    4.6638    1.0000 </r>
       <r>    4.6638    1.0000 </r>
       <r>    6.0770    0.0000 </r>
       <r>    6.0770    0.0000 </r>
       <r>    6.8583    0.0000 </r>
       <r>    6.8583    0.0000 </r>
       <r>    6.9042    0.0000 </r>
       <r>    6.9042    0.0000 </r>
       <r>    7.9089    0.0000 </r>
       <r>    7.9089    0.0000 </r>
       <r>    8.1636    0.0000 </r>
       <r>    8.1636    0.0000 </r>
       <r>    9.5366    0.0000 </r>
       <r>    9.5366    0.0000 </r>
       <r>   11.7681    0.0000 </r>
       <r>   11.7681    0.0000 </r>
       <r>   12.5969    0.0000 </r>
       <r>   12.5969    0.0000 </r>
       <r>   13.2476    0.0000 </r>
       <r>   13.2477    0.0000 </r>
       <r>   13.2652    0.0000 </r>
       <r>   13.2654    0.0000 </r>
      </set>
      <set comment="kpoint 8">
       <r>  -16.4745    1.0000 </r>
       <r>  -16.4745    1.0000 </r>
       <r>  -16.4711    1.0000 </r>
       <r>  -16.4711    1.0000 </r>
       <r>  -16.4691    1.0000 </r>
       <r>  -16.4691    1.0000 </r>
       <r>  -16.4662    1.0000 </r>
       <r>  -16.4662    1.0000 </r>
       <r>  -16.4419    1.0000 </r>
       <r>  -16.4419    1.0000 </r>
       <r>  -16.4415    1.0000 </r>
       <r>  -16.4415    1.0000 </r>
       <r>  -16.4385    1.0000 </r>
       <r>  -16.4385    1.0000 </r>
       <r>  -16.4176    1.0000 </r>
       <r>  -16.4176    1.0000 </r>
       <r>  -16.4151    1.0000 </r>
       <r>  -16.4151    1.0000 </r>
       <r>  -16.4074    1.0000 </r>
       <r>  -16.4074    1.0000 </r>
       <r>   -8.0377    1.0000 </r>
       <r>   -8.0377    1.0000 </r>
       <r>   -7.6637    1.0000 </r>
       <r>   -7.6637    1.0000 </r>
       <r>   -2.7263    1.0000 </r>
       <r>   -2.7263    1.0000 </r>
       <r>   -1.7690    1.0000 </r>
       <r>   -1.7690    1.0000 </r>
       <r>    1.9192    1.0000 </r>
       <r>    1.9192    1.0000 </r>
       <r>    2.6328    1.0000 </r>
       <r>    2.6328    1.0000 </r>
       <r>    2.7083    1.0000 </r>
       <r>    2.7083    1.0000 </r>
       <r>    3.1969    1.0000 </r>
       <r>    3.1969    1.0000 </r>
       <r>    4.0653    1.0000 </r>
       <r>    4.0653    1.0000 </r>
       <r>    4.6801    1.0000 </r>
       <r>    4.6801    1.0000 </r>
       <r>    6.0332    0.0000 </r>
       <r>    6.0332    0.0000 </r>
       <r>    6.7315    0.0000 </r>
       <r>    6.7315    0.0000 </r>
       <r>    6.8445    0.0000 </r>
       <r>    6.8445    0.0000 </r>
       <r>    7.9035    0.0000 </r>
       <r>    7.9035    0.0000 </r>
       <r>    8.0614    0.0000 </r>
       <r>    8.0614    0.0000 </r>
       <r>    9.5372    0.0000 </r>
       <r>    9.5372    0.0000 </r>
       <r>   12.0684    0.0000 </r>
       <r>   12.0684    0.0000 </r>
       <r>   12.6925    0.0000 </r>
       <r>   12.6925    0.0000 </r>
       <r>   13.2912    0.0000 </r>
       <r>   13.3001    0.0000 </r>
       <r>   13.3592    0.0000 </r>
       <r>   13.3635    0.0000 </r>
      </set>
      <set comment="kpoint 9">
       <r>  -16.4744    1.0000 </r>
       <r>  -16.4744    1.0000 </r>
       <r>  -16.4711    1.0000 </r>
       <r>  -16.4711    1.0000 </r>
       <r>  -16.4691    1.0000 </r>
       <r>  -16.4691    1.0000 </r>
       <r>  -16.4663    1.0000 </r>
       <r>  -16.4663    1.0000 </r>
       <r>  -16.4416    1.0000 </r>
       <r>  -16.4416    1.0000 </r>
       <r>  -16.4415    1.0000 </r>
       <r>  -16.4415    1.0000 </r>
       <r>  -16.4386    1.0000 </r>
       <r>  -16.4386    1.0000 </r>
       <r>  -16.4175    1.0000 </r>
       <r>  -16.4175    1.0000 </r>
       <r>  -16.4152    1.0000 </r>
       <r>  -16.4152    1.0000 </r>
       <r>  -16.4074    1.0000 </r>
       <r>  -16.4074    1.0000 </r>
       <r>   -8.0171    1.0000 </r>
       <r>   -8.0171    1.0000 </r>
       <r>   -7.6775    1.0000 </r>
       <r>   -7.6775    1.0000 </r>
       <r>   -2.7381    1.0000 </r>
       <r>   -2.7381    1.0000 </r>
       <r>   -1.7956    1.0000 </r>
       <r>   -1.7956    1.0000 </r>
       <r>    1.9678    1.0000 </r>
       <r>    1.9678    1.0000 </r>
       <r>    2.5906    1.0000 </r>
       <r>    2.5906    1.0000 </r>
       <r>    2.7427    1.0000 </r>
       <r>    2.7427    1.0000 </r>
       <r>    3.1828    1.0000 </r>
       <r>    3.1828    1.0000 </r>
       <r>    4.1272    1.0000 </r>
       <r>    4.1272    1.0000 </r>
       <r>    4.6714    1.0000 </r>
       <r>    4.6714    1.0000 </r>
       <r>    6.0271    0.0000 </r>
       <r>    6.0271    0.0000 </r>
       <r>    6.6712    0.0000 </r>
       <r>    6.6712    0.0000 </r>
       <r>    6.8216    0.0000 </r>
       <r>    6.8216    0.0000 </r>
       <r>    7.9020    0.0000 </r>
       <r>    7.9020    0.0000 </r>
       <r>    8.0201    0.0000 </r>
       <r>    8.0201    0.0000 </r>
       <r>    9.5372    0.0000 </r>
       <r>    9.5372    0.0000 </r>
       <r>   12.2193    0.0000 </r>
       <r>   12.2193    0.0000 </r>
       <r>   12.7333    0.0000 </r>
       <r>   12.7335    0.0000 </r>
       <r>   13.2827    0.0000 </r>
       <r>   13.2994    0.0000 </r>
       <r>   13.4128    0.0000 </r>
       <r>   13.6594    0.0000 </r>
      </set>
      <set comment="kpoint 10">
       <r>  -16.4750    1.0000 </r>
       <r>  -16.4743    1.0000 </r>
       <r>  -16.4711    1.0000 </r>
       <r>  -16.4709    1.0000 </r>
       <r>  -16.4692    1.0000 </r>
       <r>  -16.4688    1.0000 </r>
       <r>  -16.4662    1.0000 </r>
       <r>  -16.4660    1.0000 </r>
       <r>  -16.4424    1.0000 </r>
       <r>  -16.4420    1.0000 </r>
       <r>  -16.4417    1.0000 </r>
       <r>  -16.4413    1.0000 </r>
       <r>  -16.4386    1.0000 </r>
       <r>  -16.4382    1.0000 </r>
       <r>  -16.4179    1.0000 </r>
       <r>  -16.4174    1.0000 </r>
       <r>  -16.4151    1.0000 </r>
       <r>  -16.4148    1.0000 </r>
       <r>  -16.4076    1.0000 </r>
       <r>  -16.4071    1.0000 </r>
       <r>   -8.0800    1.0000 </r>
       <r>   -8.0370    1.0000 </r>
       <r>   -7.6740    1.0000 </r>
       <r>   -7.6278    1.0000 </r>
       <r>   -2.7628    1.0000 </r>
       <r>   -2.6627    1.0000 </r>
       <r>   -1.7751    1.0000 </r>
       <r>   -1.6933    1.0000 </r>
       <r>    1.6830    1.0000 </r>
       <r>    2.0442    1.0000 </r>
       <r>    2.5395    1.0000 </r>
       <r>    2.6440    1.0000 </r>
       <r>    2.7026    1.0000 </r>
       <r>    2.8364    1.0000 </r>
       <r>    3.1787    1.0000 </r>
       <r>    3.2382    1.0000 </r>
       <r>    3.9623    1.0000 </r>
       <r>    4.0445    1.0000 </r>
       <r>    4.6512    1.0000 </r>
       <r>    4.7043    1.0000 </r>
       <r>    5.9650    0.0000 </r>
       <r>    6.1285    0.0000 </r>
       <r>    6.6918    0.0000 </r>
       <r>    6.8214    0.0000 </r>
       <r>    6.9022    0.0000 </r>
       <r>    6.9234    0.0000 </r>
       <r>    7.7037    0.0000 </r>
       <r>    8.0453    0.0000 </r>
       <r>    8.0579    0.0000 </r>
       <r>    8.1630    0.0000 </r>
       <r>    9.5072    0.0000 </r>
       <r>    9.6344    0.0000 </r>
       <r>   11.8815    0.0000 </r>
       <r>   11.9565    0.0000 </r>
       <r>   12.4992    0.0000 </r>
       <r>   12.7901    0.0000 </r>
       <r>   13.1120    0.0000 </r>
       <r>   13.1773    0.0000 </r>
       <r>   13.3836    0.0000 </r>
       <r>   13.4962    0.0000 </r>
      </set>
      <set comment="kpoint 11">
       <r>  -16.4749    1.0000 </r>
       <r>  -16.4745    1.0000 </r>
       <r>  -16.4710    1.0000 </r>
       <r>  -16.4709    1.0000 </r>
       <r>  -16.4691    1.0000 </r>
       <r>  -16.4689    1.0000 </r>
       <r>  -16.4662    1.0000 </r>
       <r>  -16.4661    1.0000 </r>
       <r>  -16.4423    1.0000 </r>
       <r>  -16.4421    1.0000 </r>
       <r>  -16.4416    1.0000 </r>
       <r>  -16.4414    1.0000 </r>
       <r>  -16.4385    1.0000 </r>
       <r>  -16.4383    1.0000 </r>
       <r>  -16.4177    1.0000 </r>
       <r>  -16.4175    1.0000 </r>
       <r>  -16.4150    1.0000 </r>
       <r>  -16.4149    1.0000 </r>
       <r>  -16.4075    1.0000 </r>
       <r>  -16.4073    1.0000 </r>
       <r>   -8.0702    1.0000 </r>
       <r>   -8.0486    1.0000 </r>
       <r>   -7.6616    1.0000 </r>
       <r>   -7.6384    1.0000 </r>
       <r>   -2.7376    1.0000 </r>
       <r>   -2.6871    1.0000 </r>
       <r>   -1.7576    1.0000 </r>
       <r>   -1.7163    1.0000 </r>
       <r>    1.7763    1.0000 </r>
       <r>    1.9612    1.0000 </r>
       <r>    2.6000    1.0000 </r>
       <r>    2.6575    1.0000 </r>
       <r>    2.6868    1.0000 </r>
       <r>    2.7529    1.0000 </r>
       <r>    3.1947    1.0000 </r>
       <r>    3.2245    1.0000 </r>
       <r>    3.9837    1.0000 </r>
       <r>    4.0252    1.0000 </r>
       <r>    4.6641    1.0000 </r>
       <r>    4.6911    1.0000 </r>
       <r>    6.0074    0.0000 </r>
       <r>    6.0907    0.0000 </r>
       <r>    6.7415    0.0000 </r>
       <r>    6.8464    0.0000 </r>
       <r>    6.8483    0.0000 </r>
       <r>    6.8978    0.0000 </r>
       <r>    7.8109    0.0000 </r>
       <r>    7.9848    0.0000 </r>
       <r>    8.0832    0.0000 </r>
       <r>    8.1361    0.0000 </r>
       <r>    9.5125    0.0000 </r>
       <r>    9.5786    0.0000 </r>
       <r>   11.8986    0.0000 </r>
       <r>   11.9369    0.0000 </r>
       <r>   12.5715    0.0000 </r>
       <r>   12.7217    0.0000 </r>
       <r>   13.2068    0.0000 </r>
       <r>   13.2302    0.0000 </r>
       <r>   13.3379    0.0000 </r>
       <r>   13.4024    0.0000 </r>
      </set>
      <set comment="kpoint 12">
       <r>  -16.4749    1.0000 </r>
       <r>  -16.4745    1.0000 </r>
       <r>  -16.4710    1.0000 </r>
       <r>  -16.4709    1.0000 </r>
       <r>  -16.4691    1.0000 </r>
       <r>  -16.4689    1.0000 </r>
       <r>  -16.4662    1.0000 </r>
       <r>  -16.4661    1.0000 </r>
       <r>  -16.4423    1.0000 </r>
       <r>  -16.4421    1.0000 </r>
       <r>  -16.4416    1.0000 </r>
       <r>  -16.4414    1.0000 </r>
       <r>  -16.4385    1.0000 </r>
       <r>  -16.4383    1.0000 </r>
       <r>  -16.4177    1.0000 </r>
       <r>  -16.4175    1.0000 </r>
       <r>  -16.4150    1.0000 </r>
       <r>  -16.4149    1.0000 </r>
       <r>  -16.4075    1.0000 </r>
       <r>  -16.4073    1.0000 </r>
       <r>   -8.0702    1.0000 </r>
       <r>   -8.0486    1.0000 </r>
       <r>   -7.6616    1.0000 </r>
       <r>   -7.6384    1.0000 </r>
       <r>   -2.7376    1.0000 </r>
       <r>   -2.6871    1.0000 </r>
       <r>   -1.7576    1.0000 </r>
       <r>   -1.7163    1.0000 </r>
       <r>    1.7763    1.0000 </r>
       <r>    1.9612    1.0000 </r>
       <r>    2.6000    1.0000 </r>
       <r>    2.6575    1.0000 </r>
       <r>    2.6868    1.0000 </r>
       <r>    2.7529    1.0000 </r>
       <r>    3.1947    1.0000 </r>
       <r>    3.2245    1.0000 </r>
       <r>    3.9837    1.0000 </r>
       <r>    4.0252    1.0000 </r>
       <r>    4.6641    1.0000 </r>
       <r>    4.6911    1.0000 </r>
       <r>    6.0074    0.0000 </r>
       <r>    6.0907    0.0000 </r>
       <r>    6.7415    0.0000 </r>
       <r>    6.8464    0.0000 </r>
       <r>    6.8483    0.0000 </r>
       <r>    6.8978    0.0000 </r>
       <r>    7.8109    0.0000 </r>
       <r>    7.9848    0.0000 </r>
       <r>    8.0832    0.0000 </r>
       <r>    8.1361    0.0000 </r>
       <r>    9.5125    0.0000 </r>
       <r>    9.5786    0.0000 </r>
       <r>   11.8986    0.0000 </r>
       <r>   11.9369    0.0000 </r>
       <r>   12.5715    0.0000 </r>
       <r>   12.7217    0.0000 </r>
       <r>   13.2077    0.0000 </r>
       <r>   13.2349    0.0000 </r>
       <r>   13.3799    0.0000 </r>
       <r>   13.4383    0.0000 </r>
      </set>
      <set comment="kpoint 13">
       <r>  -16.4750    1.0000 </r>
       <r>  -16.4743    1.0000 </r>
       <r>  -16.4711    1.0000 </r>
       <r>  -16.4709    1.0000 </r>
       <r>  -16.4692    1.0000 </r>
       <r>  -16.4688    1.0000 </r>
       <r>  -16.4662    1.0000 </r>
       <r>  -16.4660    1.0000 </r>
       <r>  -16.4424    1.0000 </r>
       <r>  -16.4420    1.0000 </r>
       <r>  -16.4417    1.0000 </r>
       <r>  -16.4413    1.0000 </r>
       <r>  -16.4386    1.0000 </r>
       <r>  -16.4382    1.0000 </r>
       <r>  -16.4179    1.0000 </r>
       <r>  -16.4174    1.0000 </r>
       <r>  -16.4151    1.0000 </r>
       <r>  -16.4148    1.0000 </r>
       <r>  -16.4076    1.0000 </r>
       <r>  -16.4071    1.0000 </r>
       <r>   -8.0800    1.0000 </r>
       <r>   -8.0370    1.0000 </r>
       <r>   -7.6740    1.0000 </r>
       <r>   -7.6278    1.0000 </r>
       <r>   -2.7628    1.0000 </r>
       <r>   -2.6627    1.0000 </r>
       <r>   -1.7751    1.0000 </r>
       <r>   -1.6933    1.0000 </r>
       <r>    1.6830    1.0000 </r>
       <r>    2.0442    1.0000 </r>
       <r>    2.5395    1.0000 </r>
       <r>    2.6440    1.0000 </r>
       <r>    2.7026    1.0000 </r>
       <r>    2.8364    1.0000 </r>
       <r>    3.1787    1.0000 </r>
       <r>    3.2382    1.0000 </r>
       <r>    3.9623    1.0000 </r>
       <r>    4.0445    1.0000 </r>
       <r>    4.6512    1.0000 </r>
       <r>    4.7043    1.0000 </r>
       <r>    5.9650    0.0000 </r>
       <r>    6.1285    0.0000 </r>
       <r>    6.6918    0.0000 </r>
       <r>    6.8214    0.0000 </r>
       <r>    6.9022    0.0000 </r>
       <r>    6.9234    0.0000 </r>
       <r>    7.7037    0.0000 </r>
       <r>    8.0453    0.0000 </r>
       <r>    8.0579    0.0000 </r>
       <r>    8.1630    0.0000 </r>
       <r>    9.5072    0.0000 </r>
       <r>    9.6344    0.0000 </r>
       <r>   11.8815    0.0000 </r>
       <r>   11.9565    0.0000 </r>
       <r>   12.4992    0.0000 </r>
       <r>   12.7901    0.0000 </r>
       <r>   13.1119    0.0000 </r>
       <r>   13.1792    0.0000 </r>
       <r>   13.3950    0.0000 </r>
       <r>   13.5210    0.0000 </r>
      </set>
      <set comment="kpoint 14">
       <r>  -16.4749    1.0000 </r>
       <r>  -16.4749    1.0000 </r>
       <r>  -16.4710    1.0000 </r>
       <r>  -16.4710    1.0000 </r>
       <r>  -16.4687    1.0000 </r>
       <r>  -16.4687    1.0000 </r>
       <r>  -16.4660    1.0000 </r>
       <r>  -16.4660    1.0000 </r>
       <r>  -16.4430    1.0000 </r>
       <r>  -16.4430    1.0000 </r>
       <r>  -16.4416    1.0000 </r>
       <r>  -16.4416    1.0000 </r>
       <r>  -16.4381    1.0000 </r>
       <r>  -16.4381    1.0000 </r>
       <r>  -16.4177    1.0000 </r>
       <r>  -16.4177    1.0000 </r>
       <r>  -16.4148    1.0000 </r>
       <r>  -16.4148    1.0000 </r>
       <r>  -16.4073    1.0000 </r>
       <r>  -16.4073    1.0000 </r>
       <r>   -8.1039    1.0000 </r>
       <r>   -8.1039    1.0000 </r>
       <r>   -7.6207    1.0000 </r>
       <r>   -7.6207    1.0000 </r>
       <r>   -2.6737    1.0000 </r>
       <r>   -2.6737    1.0000 </r>
       <r>   -1.6616    1.0000 </r>
       <r>   -1.6616    1.0000 </r>
       <r>    1.7666    1.0000 </r>
       <r>    1.7666    1.0000 </r>
       <r>    2.5446    1.0000 </r>
       <r>    2.5446    1.0000 </r>
       <r>    2.7395    1.0000 </r>
       <r>    2.7395    1.0000 </r>
       <r>    3.2189    1.0000 </r>
       <r>    3.2189    1.0000 </r>
       <r>    3.9236    1.0000 </r>
       <r>    3.9236    1.0000 </r>
       <r>    4.6190    1.0000 </r>
       <r>    4.6190    1.0000 </r>
       <r>    6.1367    0.0000 </r>
       <r>    6.1367    0.0000 </r>
       <r>    6.7885    0.0000 </r>
       <r>    6.7885    0.0000 </r>
       <r>    7.1067    0.0000 </r>
       <r>    7.1067    0.0000 </r>
       <r>    7.8564    0.0000 </r>
       <r>    7.8564    0.0000 </r>
       <r>    8.2914    0.0000 </r>
       <r>    8.2914    0.0000 </r>
       <r>    9.5328    0.0000 </r>
       <r>    9.5328    0.0000 </r>
       <r>   11.6381    0.0000 </r>
       <r>   11.6381    0.0000 </r>
       <r>   12.5255    0.0000 </r>
       <r>   12.5255    0.0000 </r>
       <r>   13.1558    0.0000 </r>
       <r>   13.1558    0.0000 </r>
       <r>   13.2682    0.0000 </r>
       <r>   13.2684    0.0000 </r>
      </set>
      <set comment="kpoint 15">
       <r>  -16.4750    1.0000 </r>
       <r>  -16.4750    1.0000 </r>
       <r>  -16.4709    1.0000 </r>
       <r>  -16.4709    1.0000 </r>
       <r>  -16.4688    1.0000 </r>
       <r>  -16.4688    1.0000 </r>
       <r>  -16.4660    1.0000 </r>
       <r>  -16.4660    1.0000 </r>
       <r>  -16.4429    1.0000 </r>
       <r>  -16.4429    1.0000 </r>
       <r>  -16.4416    1.0000 </r>
       <r>  -16.4416    1.0000 </r>
       <r>  -16.4382    1.0000 </r>
       <r>  -16.4382    1.0000 </r>
       <r>  -16.4177    1.0000 </r>
       <r>  -16.4177    1.0000 </r>
       <r>  -16.4148    1.0000 </r>
       <r>  -16.4148    1.0000 </r>
       <r>  -16.4073    1.0000 </r>
       <r>  -16.4073    1.0000 </r>
       <r>   -8.1058    1.0000 </r>
       <r>   -8.1058    1.0000 </r>
       <r>   -7.6218    1.0000 </r>
       <r>   -7.6218    1.0000 </r>
       <r>   -2.6763    1.0000 </r>
       <r>   -2.6763    1.0000 </r>
       <r>   -1.6629    1.0000 </r>
       <r>   -1.6629    1.0000 </r>
       <r>    1.7705    1.0000 </r>
       <r>    1.7705    1.0000 </r>
       <r>    2.5810    1.0000 </r>
       <r>    2.5810    1.0000 </r>
       <r>    2.7424    1.0000 </r>
       <r>    2.7424    1.0000 </r>
       <r>    3.2275    1.0000 </r>
       <r>    3.2275    1.0000 </r>
       <r>    3.9006    1.0000 </r>
       <r>    3.9006    1.0000 </r>
       <r>    4.6346    1.0000 </r>
       <r>    4.6346    1.0000 </r>
       <r>    6.1199    0.0000 </r>
       <r>    6.1199    0.0000 </r>
       <r>    6.8552    0.0000 </r>
       <r>    6.8552    0.0000 </r>
       <r>    7.0165    0.0000 </r>
       <r>    7.0165    0.0000 </r>
       <r>    7.8966    0.0000 </r>
       <r>    7.8966    0.0000 </r>
       <r>    8.2428    0.0000 </r>
       <r>    8.2428    0.0000 </r>
       <r>    9.5352    0.0000 </r>
       <r>    9.5352    0.0000 </r>
       <r>   11.6266    0.0000 </r>
       <r>   11.6266    0.0000 </r>
       <r>   12.5378    0.0000 </r>
       <r>   12.5378    0.0000 </r>
       <r>   13.1778    0.0000 </r>
       <r>   13.1826    0.0000 </r>
       <r>   13.2502    0.0000 </r>
       <r>   13.3234    0.0000 </r>
      </set>
      <set comment="kpoint 16">
       <r>  -16.4750    1.0000 </r>
       <r>  -16.4750    1.0000 </r>
       <r>  -16.4709    1.0000 </r>
       <r>  -16.4709    1.0000 </r>
       <r>  -16.4688    1.0000 </r>
       <r>  -16.4688    1.0000 </r>
       <r>  -16.4660    1.0000 </r>
       <r>  -16.4660    1.0000 </r>
       <r>  -16.4429    1.0000 </r>
       <r>  -16.4429    1.0000 </r>
       <r>  -16.4416    1.0000 </r>
       <r>  -16.4416    1.0000 </r>
       <r>  -16.4382    1.0000 </r>
       <r>  -16.4382    1.0000 </r>
       <r>  -16.4177    1.0000 </r>
       <r>  -16.4177    1.0000 </r>
       <r>  -16.4148    1.0000 </r>
       <r>  -16.4148    1.0000 </r>
       <r>  -16.4073    1.0000 </r>
       <r>  -16.4073    1.0000 </r>
       <r>   -8.1058    1.0000 </r>
       <r>   -8.1058    1.0000 </r>
       <r>   -7.6218    1.0000 </r>
       <r>   -7.6218    1.0000 </r>
       <r>   -2.6763    1.0000 </r>
       <r>   -2.6763    1.0000 </r>
       <r>   -1.6629    1.0000 </r>
       <r>   -1.6629    1.0000 </r>
       <r>    1.7705    1.0000 </r>
       <r>    1.7705    1.0000 </r>
       <r>    2.5810    1.0000 </r>
       <r>    2.5810    1.0000 </r>
       <r>    2.7424    1.0000 </r>
       <r>    2.7424    1.0000 </r>
       <r>    3.2275    1.0000 </r>
       <r>    3.2275    1.0000 </r>
       <r>    3.9006    1.0000 </r>
       <r>    3.9006    1.0000 </r>
       <r>    4.6346    1.0000 </r>
       <r>    4.6346    1.0000 </r>
       <r>    6.1199    0.0000 </r>
       <r>    6.1199    0.0000 </r>
       <r>    6.8552    0.0000 </r>
       <r>    6.8552    0.0000 </r>
       <r>    7.0165    0.0000 </r>
       <r>    7.0165    0.0000 </r>
       <r>    7.8966    0.0000 </r>
       <r>    7.8966    0.0000 </r>
       <r>    8.2428    0.0000 </r>
       <r>    8.2428    0.0000 </r>
       <r>    9.5352    0.0000 </r>
       <r>    9.5352    0.0000 </r>
       <r>   11.6266    0.0000 </r>
       <r>   11.6266    0.0000 </r>
       <r>   12.5378    0.0000 </r>
       <r>   12.5378    0.0000 </r>
       <r>   13.1778    0.0000 </r>
       <r>   13.1778    0.0000 </r>
       <r>   13.2496    0.0000 </r>
       <r>   13.2497    0.0000 </r>
      </set>
      <set comment="kpoint 17">
       <r>  -16.4749    1.0000 </r>
       <r>  -16.4749    1.0000 </r>
       <r>  -16.4710    1.0000 </r>
       <r>  -16.4710    1.0000 </r>
       <r>  -16.4687    1.0000 </r>
       <r>  -16.4687    1.0000 </r>
       <r>  -16.4660    1.0000 </r>
       <r>  -16.4660    1.0000 </r>
       <r>  -16.4430    1.0000 </r>
       <r>  -16.4430    1.0000 </r>
       <r>  -16.4416    1.0000 </r>
       <r>  -16.4416    1.0000 </r>
       <r>  -16.4381    1.0000 </r>
       <r>  -16.4381    1.0000 </r>
       <r>  -16.4177    1.0000 </r>
       <r>  -16.4177    1.0000 </r>
       <r>  -16.4148    1.0000 </r>
       <r>  -16.4148    1.0000 </r>
       <r>  -16.4073    1.0000 </r>
       <r>  -16.4073    1.0000 </r>
       <r>   -8.1039    1.0000 </r>
       <r>   -8.1039    1.0000 </r>
       <r>   -7.6207    1.0000 </r>
       <r>   -7.6207    1.0000 </r>
       <r>   -2.6737    1.0000 </r>
       <r>   -2.6737    1.0000 </r>
       <r>   -1.6616    1.0000 </r>
       <r>   -1.6616    1.0000 </r>
       <r>    1.7666    1.0000 </r>
       <r>    1.7666    1.0000 </r>
       <r>    2.5446    1.0000 </r>
       <r>    2.5446    1.0000 </r>
       <r>    2.7395    1.0000 </r>
       <r>    2.7395    1.0000 </r>
       <r>    3.2189    1.0000 </r>
       <r>    3.2189    1.0000 </r>
       <r>    3.9236    1.0000 </r>
       <r>    3.9236    1.0000 </r>
       <r>    4.6190    1.0000 </r>
       <r>    4.6190    1.0000 </r>
       <r>    6.1367    0.0000 </r>
       <r>    6.1367    0.0000 </r>
       <r>    6.7885    0.0000 </r>
       <r>    6.7885    0.0000 </r>
       <r>    7.1067    0.0000 </r>
       <r>    7.1067    0.0000 </r>
       <r>    7.8564    0.0000 </r>
       <r>    7.8564    0.0000 </r>
       <r>    8.2914    0.0000 </r>
       <r>    8.2914    0.0000 </r>
       <r>    9.5328    0.0000 </r>
       <r>    9.5328    0.0000 </r>
       <r>   11.6381    0.0000 </r>
       <r>   11.6381    0.0000 </r>
       <r>   12.5255    0.0000 </r>
       <r>   12.5255    0.0000 </r>
       <r>   13.1559    0.0000 </r>
       <r>   13.1566    0.0000 </r>
       <r>   13.2680    0.0000 </r>
       <r>   13.2683    0.0000 </r>
      </set>
      <set comment="kpoint 18">
       <r>  -16.4748    1.0000 </r>
       <r>  -16.4748    1.0000 </r>
       <r>  -16.4711    1.0000 </r>
       <r>  -16.4711    1.0000 </r>
       <r>  -16.4687    1.0000 </r>
       <r>  -16.4687    1.0000 </r>
       <r>  -16.4661    1.0000 </r>
       <r>  -16.4661    1.0000 </r>
       <r>  -16.4426    1.0000 </r>
       <r>  -16.4426    1.0000 </r>
       <r>  -16.4416    1.0000 </r>
       <r>  -16.4416    1.0000 </r>
       <r>  -16.4382    1.0000 </r>
       <r>  -16.4382    1.0000 </r>
       <r>  -16.4177    1.0000 </r>
       <r>  -16.4177    1.0000 </r>
       <r>  -16.4149    1.0000 </r>
       <r>  -16.4149    1.0000 </r>
       <r>  -16.4073    1.0000 </r>
       <r>  -16.4073    1.0000 </r>
       <r>   -8.0802    1.0000 </r>
       <r>   -8.0802    1.0000 </r>
       <r>   -7.6343    1.0000 </r>
       <r>   -7.6343    1.0000 </r>
       <r>   -2.6924    1.0000 </r>
       <r>   -2.6924    1.0000 </r>
       <r>   -1.7006    1.0000 </r>
       <r>   -1.7006    1.0000 </r>
       <r>    1.8152    1.0000 </r>
       <r>    1.8152    1.0000 </r>
       <r>    2.5829    1.0000 </r>
       <r>    2.5829    1.0000 </r>
       <r>    2.7087    1.0000 </r>
       <r>    2.7087    1.0000 </r>
       <r>    3.2081    1.0000 </r>
       <r>    3.2081    1.0000 </r>
       <r>    3.9768    1.0000 </r>
       <r>    3.9768    1.0000 </r>
       <r>    4.6406    1.0000 </r>
       <r>    4.6406    1.0000 </r>
       <r>    6.1032    0.0000 </r>
       <r>    6.1032    0.0000 </r>
       <r>    6.7331    0.0000 </r>
       <r>    6.7331    0.0000 </r>
       <r>    7.0620    0.0000 </r>
       <r>    7.0620    0.0000 </r>
       <r>    7.8451    0.0000 </r>
       <r>    7.8451    0.0000 </r>
       <r>    8.2404    0.0000 </r>
       <r>    8.2404    0.0000 </r>
       <r>    9.5331    0.0000 </r>
       <r>    9.5331    0.0000 </r>
       <r>   11.7823    0.0000 </r>
       <r>   11.7823    0.0000 </r>
       <r>   12.5746    0.0000 </r>
       <r>   12.5746    0.0000 </r>
       <r>   13.2194    0.0000 </r>
       <r>   13.2196    0.0000 </r>
       <r>   13.2879    0.0000 </r>
       <r>   13.2893    0.0000 </r>
      </set>
      <set comment="kpoint 19">
       <r>  -16.4748    1.0000 </r>
       <r>  -16.4748    1.0000 </r>
       <r>  -16.4710    1.0000 </r>
       <r>  -16.4710    1.0000 </r>
       <r>  -16.4689    1.0000 </r>
       <r>  -16.4689    1.0000 </r>
       <r>  -16.4661    1.0000 </r>
       <r>  -16.4661    1.0000 </r>
       <r>  -16.4426    1.0000 </r>
       <r>  -16.4426    1.0000 </r>
       <r>  -16.4415    1.0000 </r>
       <r>  -16.4415    1.0000 </r>
       <r>  -16.4383    1.0000 </r>
       <r>  -16.4383    1.0000 </r>
       <r>  -16.4177    1.0000 </r>
       <r>  -16.4177    1.0000 </r>
       <r>  -16.4149    1.0000 </r>
       <r>  -16.4149    1.0000 </r>
       <r>  -16.4073    1.0000 </r>
       <r>  -16.4073    1.0000 </r>
       <r>   -8.0821    1.0000 </r>
       <r>   -8.0821    1.0000 </r>
       <r>   -7.6354    1.0000 </r>
       <r>   -7.6354    1.0000 </r>
       <r>   -2.6950    1.0000 </r>
       <r>   -2.6950    1.0000 </r>
       <r>   -1.7021    1.0000 </r>
       <r>   -1.7021    1.0000 </r>
       <r>    1.8193    1.0000 </r>
       <r>    1.8193    1.0000 </r>
       <r>    2.6193    1.0000 </r>
       <r>    2.6193    1.0000 </r>
       <r>    2.7111    1.0000 </r>
       <r>    2.7111    1.0000 </r>
       <r>    3.2178    1.0000 </r>
       <r>    3.2178    1.0000 </r>
       <r>    3.9546    1.0000 </r>
       <r>    3.9546    1.0000 </r>
       <r>    4.6581    1.0000 </r>
       <r>    4.6581    1.0000 </r>
       <r>    6.0836    0.0000 </r>
       <r>    6.0836    0.0000 </r>
       <r>    6.8001    0.0000 </r>
       <r>    6.8001    0.0000 </r>
       <r>    6.9706    0.0000 </r>
       <r>    6.9706    0.0000 </r>
       <r>    7.8896    0.0000 </r>
       <r>    7.8896    0.0000 </r>
       <r>    8.1861    0.0000 </r>
       <r>    8.1861    0.0000 </r>
       <r>    9.5357    0.0000 </r>
       <r>    9.5357    0.0000 </r>
       <r>   11.7717    0.0000 </r>
       <r>   11.7717    0.0000 </r>
       <r>   12.5912    0.0000 </r>
       <r>   12.5912    0.0000 </r>
       <r>   13.2361    0.0000 </r>
       <r>   13.2373    0.0000 </r>
       <r>   13.2759    0.0000 </r>
       <r>   13.2767    0.0000 </r>
      </set>
      <set comment="kpoint 20">
       <r>  -16.4748    1.0000 </r>
       <r>  -16.4748    1.0000 </r>
       <r>  -16.4710    1.0000 </r>
       <r>  -16.4710    1.0000 </r>
       <r>  -16.4689    1.0000 </r>
       <r>  -16.4689    1.0000 </r>
       <r>  -16.4661    1.0000 </r>
       <r>  -16.4661    1.0000 </r>
       <r>  -16.4426    1.0000 </r>
       <r>  -16.4426    1.0000 </r>
       <r>  -16.4415    1.0000 </r>
       <r>  -16.4415    1.0000 </r>
       <r>  -16.4383    1.0000 </r>
       <r>  -16.4383    1.0000 </r>
       <r>  -16.4177    1.0000 </r>
       <r>  -16.4177    1.0000 </r>
       <r>  -16.4149    1.0000 </r>
       <r>  -16.4149    1.0000 </r>
       <r>  -16.4073    1.0000 </r>
       <r>  -16.4073    1.0000 </r>
       <r>   -8.0821    1.0000 </r>
       <r>   -8.0821    1.0000 </r>
       <r>   -7.6354    1.0000 </r>
       <r>   -7.6354    1.0000 </r>
       <r>   -2.6950    1.0000 </r>
       <r>   -2.6950    1.0000 </r>
       <r>   -1.7021    1.0000 </r>
       <r>   -1.7021    1.0000 </r>
       <r>    1.8193    1.0000 </r>
       <r>    1.8193    1.0000 </r>
       <r>    2.6193    1.0000 </r>
       <r>    2.6193    1.0000 </r>
       <r>    2.7111    1.0000 </r>
       <r>    2.7111    1.0000 </r>
       <r>    3.2178    1.0000 </r>
       <r>    3.2178    1.0000 </r>
       <r>    3.9546    1.0000 </r>
       <r>    3.9546    1.0000 </r>
       <r>    4.6581    1.0000 </r>
       <r>    4.6581    1.0000 </r>
       <r>    6.0836    0.0000 </r>
       <r>    6.0836    0.0000 </r>
       <r>    6.8001    0.0000 </r>
       <r>    6.8001    0.0000 </r>
       <r>    6.9706    0.0000 </r>
       <r>    6.9706    0.0000 </r>
       <r>    7.8896    0.0000 </r>
       <r>    7.8896    0.0000 </r>
       <r>    8.1861    0.0000 </r>
       <r>    8.1861    0.0000 </r>
       <r>    9.5357    0.0000 </r>
       <r>    9.5357    0.0000 </r>
       <r>   11.7717    0.0000 </r>
       <r>   11.7717    0.0000 </r>
       <r>   12.5912    0.0000 </r>
       <r>   12.5912    0.0000 </r>
       <r>   13.2359    0.0000 </r>
       <r>   13.2405    0.0000 </r>
       <r>   13.2762    0.0000 </r>
       <r>   13.2834    0.0000 </r>
      </set>
      <set comment="kpoint 21">
       <r>  -16.4748    1.0000 </r>
       <r>  -16.4748    1.0000 </r>
       <r>  -16.4711    1.0000 </r>
       <r>  -16.4711    1.0000 </r>
       <r>  -16.4687    1.0000 </r>
       <r>  -16.4687    1.0000 </r>
       <r>  -16.4661    1.0000 </r>
       <r>  -16.4661    1.0000 </r>
       <r>  -16.4426    1.0000 </r>
       <r>  -16.4426    1.0000 </r>
       <r>  -16.4416    1.0000 </r>
       <r>  -16.4416    1.0000 </r>
       <r>  -16.4382    1.0000 </r>
       <r>  -16.4382    1.0000 </r>
       <r>  -16.4177    1.0000 </r>
       <r>  -16.4177    1.0000 </r>
       <r>  -16.4149    1.0000 </r>
       <r>  -16.4149    1.0000 </r>
       <r>  -16.4073    1.0000 </r>
       <r>  -16.4073    1.0000 </r>
       <r>   -8.0802    1.0000 </r>
       <r>   -8.0802    1.0000 </r>
       <r>   -7.6343    1.0000 </r>
       <r>   -7.6343    1.0000 </r>
       <r>   -2.6924    1.0000 </r>
       <r>   -2.6924    1.0000 </r>
       <r>   -1.7006    1.0000 </r>
       <r>   -1.7006    1.0000 </r>
       <r>    1.8152    1.0000 </r>
       <r>    1.8152    1.0000 </r>
       <r>    2.5829    1.0000 </r>
       <r>    2.5829    1.0000 </r>
       <r>    2.7087    1.0000 </r>
       <r>    2.7087    1.0000 </r>
       <r>    3.2081    1.0000 </r>
       <r>    3.2081    1.0000 </r>
       <r>    3.9768    1.0000 </r>
       <r>    3.9768    1.0000 </r>
       <r>    4.6406    1.0000 </r>
       <r>    4.6406    1.0000 </r>
       <r>    6.1032    0.0000 </r>
       <r>    6.1032    0.0000 </r>
       <r>    6.7331    0.0000 </r>
       <r>    6.7331    0.0000 </r>
       <r>    7.0620    0.0000 </r>
       <r>    7.0620    0.0000 </r>
       <r>    7.8451    0.0000 </r>
       <r>    7.8451    0.0000 </r>
       <r>    8.2404    0.0000 </r>
       <r>    8.2404    0.0000 </r>
       <r>    9.5331    0.0000 </r>
       <r>    9.5331    0.0000 </r>
       <r>   11.7823    0.0000 </r>
       <r>   11.7823    0.0000 </r>
       <r>   12.5746    0.0000 </r>
       <r>   12.5746    0.0000 </r>
       <r>   13.2196    0.0000 </r>
       <r>   13.2207    0.0000 </r>
       <r>   13.2879    0.0000 </r>
       <r>   13.2882    0.0000 </r>
      </set>
      <set comment="kpoint 22">
       <r>  -16.4745    1.0000 </r>
       <r>  -16.4745    1.0000 </r>
       <r>  -16.4713    1.0000 </r>
       <r>  -16.4713    1.0000 </r>
       <r>  -16.4688    1.0000 </r>
       <r>  -16.4688    1.0000 </r>
       <r>  -16.4663    1.0000 </r>
       <r>  -16.4663    1.0000 </r>
       <r>  -16.4420    1.0000 </r>
       <r>  -16.4420    1.0000 </r>
       <r>  -16.4414    1.0000 </r>
       <r>  -16.4414    1.0000 </r>
       <r>  -16.4384    1.0000 </r>
       <r>  -16.4384    1.0000 </r>
       <r>  -16.4175    1.0000 </r>
       <r>  -16.4175    1.0000 </r>
       <r>  -16.4151    1.0000 </r>
       <r>  -16.4151    1.0000 </r>
       <r>  -16.4073    1.0000 </r>
       <r>  -16.4073    1.0000 </r>
       <r>   -8.0353    1.0000 </r>
       <r>   -8.0353    1.0000 </r>
       <r>   -7.6622    1.0000 </r>
       <r>   -7.6622    1.0000 </r>
       <r>   -2.7227    1.0000 </r>
       <r>   -2.7227    1.0000 </r>
       <r>   -1.7666    1.0000 </r>
       <r>   -1.7666    1.0000 </r>
       <r>    1.9128    1.0000 </r>
       <r>    1.9128    1.0000 </r>
       <r>    2.6146    1.0000 </r>
       <r>    2.6146    1.0000 </r>
       <r>    2.6772    1.0000 </r>
       <r>    2.6772    1.0000 </r>
       <r>    3.1803    1.0000 </r>
       <r>    3.1803    1.0000 </r>
       <r>    4.0917    1.0000 </r>
       <r>    4.0917    1.0000 </r>
       <r>    4.6557    1.0000 </r>
       <r>    4.6557    1.0000 </r>
       <r>    6.0627    0.0000 </r>
       <r>    6.0627    0.0000 </r>
       <r>    6.6262    0.0000 </r>
       <r>    6.6262    0.0000 </r>
       <r>    6.9868    0.0000 </r>
       <r>    6.9868    0.0000 </r>
       <r>    7.8228    0.0000 </r>
       <r>    7.8228    0.0000 </r>
       <r>    8.1573    0.0000 </r>
       <r>    8.1573    0.0000 </r>
       <r>    9.5333    0.0000 </r>
       <r>    9.5333    0.0000 </r>
       <r>   12.0802    0.0000 </r>
       <r>   12.0802    0.0000 </r>
       <r>   12.6609    0.0000 </r>
       <r>   12.6609    0.0000 </r>
       <r>   13.2539    0.0000 </r>
       <r>   13.2567    0.0000 </r>
       <r>   13.3890    0.0000 </r>
       <r>   13.3902    0.0000 </r>
      </set>
      <set comment="kpoint 23">
       <r>  -16.4745    1.0000 </r>
       <r>  -16.4745    1.0000 </r>
       <r>  -16.4711    1.0000 </r>
       <r>  -16.4711    1.0000 </r>
       <r>  -16.4690    1.0000 </r>
       <r>  -16.4690    1.0000 </r>
       <r>  -16.4662    1.0000 </r>
       <r>  -16.4662    1.0000 </r>
       <r>  -16.4419    1.0000 </r>
       <r>  -16.4419    1.0000 </r>
       <r>  -16.4415    1.0000 </r>
       <r>  -16.4415    1.0000 </r>
       <r>  -16.4385    1.0000 </r>
       <r>  -16.4385    1.0000 </r>
       <r>  -16.4175    1.0000 </r>
       <r>  -16.4175    1.0000 </r>
       <r>  -16.4151    1.0000 </r>
       <r>  -16.4151    1.0000 </r>
       <r>  -16.4074    1.0000 </r>
       <r>  -16.4074    1.0000 </r>
       <r>   -8.0371    1.0000 </r>
       <r>   -8.0371    1.0000 </r>
       <r>   -7.6634    1.0000 </r>
       <r>   -7.6634    1.0000 </r>
       <r>   -2.7254    1.0000 </r>
       <r>   -2.7254    1.0000 </r>
       <r>   -1.7684    1.0000 </r>
       <r>   -1.7684    1.0000 </r>
       <r>    1.9177    1.0000 </r>
       <r>    1.9177    1.0000 </r>
       <r>    2.6284    1.0000 </r>
       <r>    2.6284    1.0000 </r>
       <r>    2.7002    1.0000 </r>
       <r>    2.7002    1.0000 </r>
       <r>    3.1926    1.0000 </r>
       <r>    3.1926    1.0000 </r>
       <r>    4.0722    1.0000 </r>
       <r>    4.0722    1.0000 </r>
       <r>    4.6741    1.0000 </r>
       <r>    4.6741    1.0000 </r>
       <r>    6.0406    0.0000 </r>
       <r>    6.0406    0.0000 </r>
       <r>    6.6893    0.0000 </r>
       <r>    6.6893    0.0000 </r>
       <r>    6.8959    0.0000 </r>
       <r>    6.8959    0.0000 </r>
       <r>    7.8761    0.0000 </r>
       <r>    7.8761    0.0000 </r>
       <r>    8.0926    0.0000 </r>
       <r>    8.0926    0.0000 </r>
       <r>    9.5362    0.0000 </r>
       <r>    9.5362    0.0000 </r>
       <r>   12.0714    0.0000 </r>
       <r>   12.0714    0.0000 </r>
       <r>   12.6843    0.0000 </r>
       <r>   12.6843    0.0000 </r>
       <r>   13.2806    0.0000 </r>
       <r>   13.2829    0.0000 </r>
       <r>   13.3682    0.0000 </r>
       <r>   13.3791    0.0000 </r>
      </set>
      <set comment="kpoint 24">
       <r>  -16.4745    1.0000 </r>
       <r>  -16.4745    1.0000 </r>
       <r>  -16.4711    1.0000 </r>
       <r>  -16.4711    1.0000 </r>
       <r>  -16.4690    1.0000 </r>
       <r>  -16.4690    1.0000 </r>
       <r>  -16.4662    1.0000 </r>
       <r>  -16.4662    1.0000 </r>
       <r>  -16.4419    1.0000 </r>
       <r>  -16.4419    1.0000 </r>
       <r>  -16.4415    1.0000 </r>
       <r>  -16.4415    1.0000 </r>
       <r>  -16.4385    1.0000 </r>
       <r>  -16.4385    1.0000 </r>
       <r>  -16.4175    1.0000 </r>
       <r>  -16.4175    1.0000 </r>
       <r>  -16.4151    1.0000 </r>
       <r>  -16.4151    1.0000 </r>
       <r>  -16.4074    1.0000 </r>
       <r>  -16.4074    1.0000 </r>
       <r>   -8.0371    1.0000 </r>
       <r>   -8.0371    1.0000 </r>
       <r>   -7.6634    1.0000 </r>
       <r>   -7.6634    1.0000 </r>
       <r>   -2.7254    1.0000 </r>
       <r>   -2.7254    1.0000 </r>
       <r>   -1.7684    1.0000 </r>
       <r>   -1.7684    1.0000 </r>
       <r>    1.9177    1.0000 </r>
       <r>    1.9177    1.0000 </r>
       <r>    2.6284    1.0000 </r>
       <r>    2.6284    1.0000 </r>
       <r>    2.7002    1.0000 </r>
       <r>    2.7002    1.0000 </r>
       <r>    3.1926    1.0000 </r>
       <r>    3.1926    1.0000 </r>
       <r>    4.0722    1.0000 </r>
       <r>    4.0722    1.0000 </r>
       <r>    4.6741    1.0000 </r>
       <r>    4.6741    1.0000 </r>
       <r>    6.0406    0.0000 </r>
       <r>    6.0406    0.0000 </r>
       <r>    6.6893    0.0000 </r>
       <r>    6.6893    0.0000 </r>
       <r>    6.8959    0.0000 </r>
       <r>    6.8959    0.0000 </r>
       <r>    7.8761    0.0000 </r>
       <r>    7.8761    0.0000 </r>
       <r>    8.0926    0.0000 </r>
       <r>    8.0926    0.0000 </r>
       <r>    9.5362    0.0000 </r>
       <r>    9.5362    0.0000 </r>
       <r>   12.0714    0.0000 </r>
       <r>   12.0714    0.0000 </r>
       <r>   12.6843    0.0000 </r>
       <r>   12.6843    0.0000 </r>
       <r>   13.2806    0.0000 </r>
       <r>   13.2908    0.0000 </r>
       <r>   13.3681    0.0000 </r>
       <r>   13.4114    0.0000 </r>
      </set>
      <set comment="kpoint 25">
       <r>  -16.4745    1.0000 </r>
       <r>  -16.4745    1.0000 </r>
[...]
       <r>   -7.6433    1.0000 </r>
       <r>   -2.7713    1.0000 </r>
       <r>   -2.6835    1.0000 </r>
       <r>   -1.8007    1.0000 </r>
       <r>   -1.7286    1.0000 </r>
       <r>    1.7354    1.0000 </r>
       <r>    2.0819    1.0000 </r>
       <r>    2.5058    1.0000 </r>
       <r>    2.6822    1.0000 </r>
       <r>    2.7374    1.0000 </r>
       <r>    2.7993    1.0000 </r>
       <r>    3.1678    1.0000 </r>
       <r>    3.2233    1.0000 </r>
       <r>    4.0226    1.0000 </r>
       <r>    4.1036    1.0000 </r>
       <r>    4.6566    1.0000 </r>
       <r>    4.7031    1.0000 </r>
       <r>    5.9511    0.0000 </r>
       <r>    6.1136    0.0000 </r>
       <r>    6.6276    0.0000 </r>
       <r>    6.7991    0.0000 </r>
       <r>    6.8370    0.0000 </r>
       <r>    6.8895    0.0000 </r>
       <r>    7.7201    0.0000 </r>
       <r>    8.0167    0.0000 </r>
       <r>    8.0203    0.0000 </r>
       <r>    8.1094    0.0000 </r>
       <r>    9.5173    0.0000 </r>
       <r>    9.6301    0.0000 </r>
       <r>   12.0315    0.0000 </r>
       <r>   12.1071    0.0000 </r>
       <r>   12.5467    0.0000 </r>
       <r>   12.8241    0.0000 </r>
       <r>   13.1732    0.0000 </r>
       <r>   13.1878    0.0000 </r>
       <r>   13.4057    0.0000 </r>
       <r>   13.5359    0.0000 </r>
      </set>
      <set comment="kpoint 61">
       <r>  -16.4747    1.0000 </r>
       <r>  -16.4742    1.0000 </r>
       <r>  -16.4712    1.0000 </r>
       <r>  -16.4710    1.0000 </r>
       <r>  -16.4693    1.0000 </r>
       <r>  -16.4689    1.0000 </r>
       <r>  -16.4663    1.0000 </r>
       <r>  -16.4662    1.0000 </r>
       <r>  -16.4418    1.0000 </r>
       <r>  -16.4417    1.0000 </r>
       <r>  -16.4413    1.0000 </r>
       <r>  -16.4413    1.0000 </r>
       <r>  -16.4388    1.0000 </r>
       <r>  -16.4384    1.0000 </r>
       <r>  -16.4177    1.0000 </r>
       <r>  -16.4173    1.0000 </r>
       <r>  -16.4153    1.0000 </r>
       <r>  -16.4150    1.0000 </r>
       <r>  -16.4075    1.0000 </r>
       <r>  -16.4072    1.0000 </r>
       <r>   -8.0346    1.0000 </r>
       <r>   -7.9975    1.0000 </r>
       <r>   -7.6982    1.0000 </r>
       <r>   -7.6588    1.0000 </r>
       <r>   -2.7771    1.0000 </r>
       <r>   -2.7025    1.0000 </r>
       <r>   -1.8215    1.0000 </r>
       <r>   -1.7599    1.0000 </r>
       <r>    1.7883    1.0000 </r>
       <r>    2.1122    1.0000 </r>
       <r>    2.4773    1.0000 </r>
       <r>    2.7186    1.0000 </r>
       <r>    2.7584    1.0000 </r>
       <r>    2.7695    1.0000 </r>
       <r>    3.1562    1.0000 </r>
       <r>    3.2070    1.0000 </r>
       <r>    4.0846    1.0000 </r>
       <r>    4.1638    1.0000 </r>
       <r>    4.6486    1.0000 </r>
       <r>    4.6929    1.0000 </r>
       <r>    5.9483    0.0000 </r>
       <r>    6.1078    0.0000 </r>
       <r>    6.5690    0.0000 </r>
       <r>    6.7714    0.0000 </r>
       <r>    6.7821    0.0000 </r>
       <r>    6.8595    0.0000 </r>
       <r>    7.7395    0.0000 </r>
       <r>    7.9827    0.0000 </r>
       <r>    7.9946    0.0000 </r>
       <r>    8.0618    0.0000 </r>
       <r>    9.5279    0.0000 </r>
       <r>    9.6245    0.0000 </r>
       <r>   12.1811    0.0000 </r>
       <r>   12.2566    0.0000 </r>
       <r>   12.5931    0.0000 </r>
       <r>   12.8475    0.0000 </r>
       <r>   13.1907    0.0000 </r>
       <r>   13.2352    0.0000 </r>
       <r>   13.3963    0.0000 </r>
       <r>   13.5680    0.0000 </r>
      </set>
     </set>
    </set>
   </array>
  </eigenvalues>
  <separator name="orbital magnetization" >
   <v name="MAGDIPOLOUT">      0.00000000      0.00000000      0.00000000</v>
  </separator>
  <dos>
   <i name="efermi">      5.00085920 </i>
   <total>
    <array>
     <dimension dim="1">gridpoints</dimension>
     <dimension dim="2">spin</dimension>
     <field>energy</field>
     <field>total</field>
     <field>integrated</field>
     <set>
      <set comment="spin 1">
       <r>   -17.9890     0.0000     0.0000 </r>
       <r>   -17.8780     0.0000     0.0000 </r>
       <r>   -17.7670     0.0000     0.0000 </r>
       <r>   -17.6560     0.0000     0.0000 </r>
       <r>   -17.5450     0.0000     0.0000 </r>
       <r>   -17.4340     0.0000     0.0000 </r>
       <r>   -17.3230     0.0000     0.0000 </r>
       <r>   -17.2120     0.0000     0.0000 </r>
       <r>   -17.1010     0.0000     0.0000 </r>
       <r>   -16.9900     0.0000     0.0000 </r>
       <r>   -16.8790     0.0000     0.0000 </r>
       <r>   -16.7680     0.0000     0.0000 </r>
       <r>   -16.6570     0.0000     0.0000 </r>
       <r>   -16.5460     2.5194     0.2796 </r>
       <r>   -16.4350   208.6610    23.4400 </r>
       <r>   -16.3240   148.4792    39.9204 </r>
       <r>   -16.2130     0.7172    40.0000 </r>
       <r>   -16.1021     0.0000    40.0000 </r>
       <r>   -15.9911     0.0000    40.0000 </r>
       <r>   -15.8801     0.0000    40.0000 </r>
       <r>   -15.7691     0.0000    40.0000 </r>
       <r>   -15.6581     0.0000    40.0000 </r>
       <r>   -15.5471     0.0000    40.0000 </r>
       <r>   -15.4361     0.0000    40.0000 </r>
       <r>   -15.3251     0.0000    40.0000 </r>
       <r>   -15.2141     0.0000    40.0000 </r>
       <r>   -15.1031     0.0000    40.0000 </r>
       <r>   -14.9921     0.0000    40.0000 </r>
       <r>   -14.8811     0.0000    40.0000 </r>
       <r>   -14.7701     0.0000    40.0000 </r>
       <r>   -14.6591     0.0000    40.0000 </r>
       <r>   -14.5481     0.0000    40.0000 </r>
       <r>   -14.4371     0.0000    40.0000 </r>
       <r>   -14.3261     0.0000    40.0000 </r>
       <r>   -14.2151     0.0000    40.0000 </r>
       <r>   -14.1041     0.0000    40.0000 </r>
       <r>   -13.9932     0.0000    40.0000 </r>
       <r>   -13.8822     0.0000    40.0000 </r>
       <r>   -13.7712     0.0000    40.0000 </r>
       <r>   -13.6602     0.0000    40.0000 </r>
       <r>   -13.5492     0.0000    40.0000 </r>
       <r>   -13.4382     0.0000    40.0000 </r>
       <r>   -13.3272     0.0000    40.0000 </r>
       <r>   -13.2162     0.0000    40.0000 </r>
       <r>   -13.1052     0.0000    40.0000 </r>
       <r>   -12.9942     0.0000    40.0000 </r>
       <r>   -12.8832     0.0000    40.0000 </r>
       <r>   -12.7722     0.0000    40.0000 </r>
       <r>   -12.6612     0.0000    40.0000 </r>
       <r>   -12.5502     0.0000    40.0000 </r>
       <r>   -12.4392     0.0000    40.0000 </r>
       <r>   -12.3282     0.0000    40.0000 </r>
       <r>   -12.2172     0.0000    40.0000 </r>
       <r>   -12.1062     0.0000    40.0000 </r>
       <r>   -11.9952     0.0000    40.0000 </r>
       <r>   -11.8842     0.0000    40.0000 </r>
       <r>   -11.7733     0.0000    40.0000 </r>
       <r>   -11.6623     0.0000    40.0000 </r>
       <r>   -11.5513     0.0000    40.0000 </r>
       <r>   -11.4403     0.0000    40.0000 </r>
       <r>   -11.3293     0.0000    40.0000 </r>
       <r>   -11.2183     0.0000    40.0000 </r>
       <r>   -11.1073     0.0000    40.0000 </r>
       <r>   -10.9963     0.0000    40.0000 </r>
       <r>   -10.8853     0.0000    40.0000 </r>
       <r>   -10.7743     0.0000    40.0000 </r>
       <r>   -10.6633     0.0000    40.0000 </r>
       <r>   -10.5523     0.0000    40.0000 </r>
       <r>   -10.4413     0.0000    40.0000 </r>
       <r>   -10.3303     0.0000    40.0000 </r>
       <r>   -10.2193     0.0000    40.0000 </r>
       <r>   -10.1083     0.0000    40.0000 </r>
       <r>    -9.9973     0.0000    40.0000 </r>
       <r>    -9.8863     0.0000    40.0000 </r>
       <r>    -9.7753     0.0000    40.0000 </r>
       <r>    -9.6643     0.0000    40.0000 </r>
       <r>    -9.5534     0.0000    40.0000 </r>
       <r>    -9.4424     0.0000    40.0000 </r>
       <r>    -9.3314     0.0000    40.0000 </r>
       <r>    -9.2204     0.0000    40.0000 </r>
       <r>    -9.1094     0.0000    40.0000 </r>
       <r>    -8.9984     0.0000    40.0000 </r>
       <r>    -8.8874     0.0000    40.0000 </r>
       <r>    -8.7764     0.0000    40.0000 </r>
       <r>    -8.6654     0.0000    40.0000 </r>
       <r>    -8.5544     0.0000    40.0000 </r>
       <r>    -8.4434     0.0000    40.0000 </r>
       <r>    -8.3324     0.0000    40.0000 </r>
       <r>    -8.2214     0.0057    40.0006 </r>
       <r>    -8.1104     4.9635    40.5516 </r>
       <r>    -7.9994    27.4712    43.6007 </r>
       <r>    -7.8884     3.5958    43.9998 </r>
       <r>    -7.7774     0.0328    44.0035 </r>
       <r>    -7.6664    12.3910    45.3788 </r>
       <r>    -7.5554    23.2006    47.9539 </r>
       <r>    -7.4444     0.4149    48.0000 </r>
       <r>    -7.3335     0.0000    48.0000 </r>
       <r>    -7.2225     0.0000    48.0000 </r>
       <r>    -7.1115     0.0000    48.0000 </r>
       <r>    -7.0005     0.0000    48.0000 </r>
       <r>    -6.8895     0.0000    48.0000 </r>
       <r>    -6.7785     0.0000    48.0000 </r>
       <r>    -6.6675     0.0000    48.0000 </r>
       <r>    -6.5565     0.0000    48.0000 </r>
       <r>    -6.4455     0.0000    48.0000 </r>
       <r>    -6.3345     0.0000    48.0000 </r>
       <r>    -6.2235     0.0000    48.0000 </r>
       <r>    -6.1125     0.0000    48.0000 </r>
       <r>    -6.0015     0.0000    48.0000 </r>
       <r>    -5.8905     0.0000    48.0000 </r>
       <r>    -5.7795     0.0000    48.0000 </r>
       <r>    -5.6685     0.0000    48.0000 </r>
       <r>    -5.5575     0.0000    48.0000 </r>
       <r>    -5.4465     0.0000    48.0000 </r>
       <r>    -5.3355     0.0000    48.0000 </r>
       <r>    -5.2245     0.0000    48.0000 </r>
       <r>    -5.1136     0.0000    48.0000 </r>
       <r>    -5.0026     0.0000    48.0000 </r>
       <r>    -4.8916     0.0000    48.0000 </r>
       <r>    -4.7806     0.0000    48.0000 </r>
       <r>    -4.6696     0.0000    48.0000 </r>
       <r>    -4.5586     0.0000    48.0000 </r>
       <r>    -4.4476     0.0000    48.0000 </r>
       <r>    -4.3366     0.0000    48.0000 </r>
       <r>    -4.2256     0.0000    48.0000 </r>
       <r>    -4.1146     0.0000    48.0000 </r>
       <r>    -4.0036     0.0000    48.0000 </r>
       <r>    -3.8926     0.0000    48.0000 </r>
       <r>    -3.7816     0.0000    48.0000 </r>
       <r>    -3.6706     0.0000    48.0000 </r>
       <r>    -3.5596     0.0000    48.0000 </r>
       <r>    -3.4486     0.0000    48.0000 </r>
       <r>    -3.3376     0.0000    48.0000 </r>
       <r>    -3.2266     0.0000    48.0000 </r>
       <r>    -3.1156     0.0000    48.0000 </r>
       <r>    -3.0047     0.0000    48.0000 </r>
       <r>    -2.8937     0.0008    48.0001 </r>
       <r>    -2.7827     2.5573    48.2839 </r>
       <r>    -2.6717    25.1911    51.0800 </r>
       <r>    -2.5607     8.2303    51.9935 </r>
       <r>    -2.4497     0.0581    52.0000 </r>
       <r>    -2.3387     0.0000    52.0000 </r>
       <r>    -2.2277     0.0000    52.0000 </r>
       <r>    -2.1167     0.0000    52.0000 </r>
       <r>    -2.0057     0.0000    52.0000 </r>
       <r>    -1.8947     0.0278    52.0031 </r>
       <r>    -1.7837     7.3066    52.8141 </r>
       <r>    -1.6727    22.8235    55.3474 </r>
       <r>    -1.5617     5.8149    55.9928 </r>
       <r>    -1.4507     0.0650    56.0000 </r>
       <r>    -1.3397     0.0000    56.0000 </r>
       <r>    -1.2287     0.0000    56.0000 </r>
       <r>    -1.1177     0.0000    56.0000 </r>
       <r>    -1.0067     0.0000    56.0000 </r>
       <r>    -0.8957     0.0000    56.0000 </r>
       <r>    -0.7848     0.0000    56.0000 </r>
       <r>    -0.6738     0.0000    56.0000 </r>
       <r>    -0.5628     0.0000    56.0000 </r>
       <r>    -0.4518     0.0000    56.0000 </r>
       <r>    -0.3408     0.0000    56.0000 </r>
       <r>    -0.2298     0.0000    56.0000 </r>
       <r>    -0.1188     0.0000    56.0000 </r>
       <r>    -0.0078     0.0000    56.0000 </r>
       <r>     0.1032     0.0000    56.0000 </r>
       <r>     0.2142     0.0000    56.0000 </r>
       <r>     0.3252     0.0000    56.0000 </r>
       <r>     0.4362     0.0000    56.0000 </r>
       <r>     0.5472     0.0000    56.0000 </r>
       <r>     0.6582     0.0000    56.0000 </r>
       <r>     0.7692     0.0000    56.0000 </r>
       <r>     0.8802     0.0000    56.0000 </r>
       <r>     0.9912     0.0000    56.0000 </r>
       <r>     1.1022     0.0000    56.0000 </r>
       <r>     1.2132     0.0000    56.0000 </r>
       <r>     1.3242     0.0000    56.0000 </r>
       <r>     1.4351     0.0000    56.0000 </r>
       <r>     1.5461     0.1021    56.0113 </r>
       <r>     1.6571     1.8541    56.2171 </r>
       <r>     1.7681     6.9097    56.9841 </r>
       <r>     1.8791    10.0615    58.1008 </r>
       <r>     1.9901    10.5238    59.2689 </r>
       <r>     2.1011     5.8837    59.9220 </r>
       <r>     2.2121     0.7013    59.9998 </r>
       <r>     2.3231     0.0015    60.0000 </r>
       <r>     2.4341     0.0909    60.0101 </r>
       <r>     2.5451     5.8605    60.6606 </r>
       <r>     2.6561    28.5734    63.8321 </r>
       <r>     2.7671    28.6352    67.0104 </r>
       <r>     2.8781     7.9906    67.8973 </r>
       <r>     2.9891     0.9225    67.9997 </r>
       <r>     3.1001     0.2850    68.0314 </r>
       <r>     3.2111    20.4923    70.3059 </r>
       <r>     3.3221    15.1651    71.9892 </r>
       <r>     3.4331     0.0976    72.0000 </r>
       <r>     3.5441     0.0000    72.0000 </r>
       <r>     3.6550     0.0000    72.0000 </r>
       <r>     3.7660     0.0055    72.0006 </r>
       <r>     3.8770     1.7218    72.1917 </r>
       <r>     3.9880    11.6435    73.4841 </r>
       <r>     4.0990    16.4068    75.3052 </r>
       <r>     4.2100     6.1000    75.9822 </r>
       <r>     4.3210     0.1601    76.0000 </r>
       <r>     4.4320     0.0000    76.0000 </r>
       <r>     4.5430     0.0926    76.0103 </r>
       <r>     4.6540    15.5866    77.7403 </r>
       <r>     4.7650    20.1434    79.9761 </r>
       <r>     4.8760     0.2151    80.0000 </r>
       <r>     4.9870     0.0000    80.0000 </r>
       <r>     5.0980     0.0000    80.0000 </r>
       <r>     5.2090     0.0000    80.0000 </r>
       <r>     5.3200     0.0000    80.0000 </r>
       <r>     5.4310     0.0000    80.0000 </r>
       <r>     5.5420     0.0000    80.0000 </r>
       <r>     5.6530     0.0000    80.0000 </r>
       <r>     5.7639     0.0000    80.0000 </r>
       <r>     5.8749     0.0284    80.0032 </r>
       <r>     5.9859     4.4501    80.4971 </r>
       <r>     6.0969    19.2262    82.6311 </r>
       <r>     6.2079    11.9210    83.9543 </r>
       <r>     6.3189     0.4119    84.0000 </r>
       <r>     6.4299     0.0001    84.0000 </r>
       <r>     6.5409     0.4192    84.0465 </r>
       <r>     6.6519     7.3758    84.8652 </r>
       <r>     6.7629    13.6409    86.3793 </r>
       <r>     6.8739    19.0144    88.4898 </r>
       <r>     6.9849    19.4848    90.6525 </r>
       <r>     7.0959    10.6815    91.8381 </r>
       <r>     7.2069     1.4558    91.9997 </r>
       <r>     7.3179     0.0029    92.0000 </r>
       <r>     7.4289     0.0000    92.0000 </r>
       <r>     7.5399     0.0003    92.0000 </r>
       <r>     7.6509     0.7893    92.0876 </r>
       <r>     7.7619     5.4732    92.6951 </r>
       <r>     7.8729    12.5890    94.0925 </r>
       <r>     7.9838    13.0633    95.5424 </r>
       <r>     8.0948    12.7319    96.9556 </r>
       <r>     8.2058    18.0331    98.9572 </r>
       <r>     8.3168     8.9248    99.9478 </r>
       <r>     8.4278     0.4705   100.0000 </r>
       <r>     8.5388     0.0001   100.0000 </r>
       <r>     8.6498     0.0000   100.0000 </r>
       <r>     8.7608     0.0000   100.0000 </r>
       <r>     8.8718     0.0000   100.0000 </r>
       <r>     8.9828     0.0000   100.0000 </r>
       <r>     9.0938     0.0000   100.0000 </r>
       <r>     9.2048     0.0000   100.0000 </r>
       <r>     9.3158     0.0000   100.0000 </r>
       <r>     9.4268     0.1418   100.0157 </r>
       <r>     9.5378    16.7867   101.8790 </r>
       <r>     9.6488    17.2702   103.7959 </r>
       <r>     9.7598     1.8381   103.9999 </r>
       <r>     9.8708     0.0009   104.0000 </r>
       <r>     9.9818     0.0000   104.0000 </r>
       <r>    10.0928     0.0000   104.0000 </r>
       <r>    10.2037     0.0000   104.0000 </r>
       <r>    10.3147     0.0000   104.0000 </r>
       <r>    10.4257     0.0000   104.0000 </r>
       <r>    10.5367     0.0000   104.0000 </r>
       <r>    10.6477     0.0000   104.0000 </r>
       <r>    10.7587     0.0000   104.0000 </r>
       <r>    10.8697     0.0000   104.0000 </r>
       <r>    10.9807     0.0000   104.0000 </r>
       <r>    11.0917     0.0000   104.0000 </r>
       <r>    11.2027     0.0000   104.0000 </r>
       <r>    11.3137     0.0000   104.0000 </r>
       <r>    11.4247     0.0000   104.0000 </r>
       <r>    11.5357     0.0674   104.0075 </r>
       <r>    11.6467     3.5322   104.3995 </r>
       <r>    11.7577     3.5932   104.7984 </r>
       <r>    11.8687     4.9772   105.3508 </r>
       <r>    11.9797    11.6345   106.6422 </r>
       <r>    12.0907     5.1856   107.2178 </r>
       <r>    12.2017     3.3503   107.5896 </r>
       <r>    12.3127     3.6375   107.9934 </r>
       <r>    12.4236     0.9620   108.1001 </r>
       <r>    12.5346     6.8504   108.8605 </r>
       <r>    12.6456    11.3836   110.1240 </r>
       <r>    12.7566    11.7417   111.4273 </r>
       <r>    12.8676     4.8900   111.9701 </r>
       <r>    12.9786     0.4845   112.0239 </r>
       <r>    13.0896     1.7965   112.2232 </r>
       <r>    13.2006    14.0299   113.7805 </r>
       <r>    13.3116    27.0875   116.7871 </r>
       <r>    13.4226    18.1332   118.7998 </r>
       <r>    13.5336     8.1984   119.7097 </r>
       <r>    13.6446     1.8375   119.9137 </r>
       <r>    13.7556     0.5057   119.9698 </r>
       <r>    13.8666     0.2651   119.9993 </r>
       <r>    13.9776     0.0068   120.0000 </r>
       <r>    14.0886     0.0000   120.0000 </r>
       <r>    14.1996     0.0000   120.0000 </r>
       <r>    14.3106     0.0000   120.0000 </r>
       <r>    14.4216     0.0000   120.0000 </r>
       <r>    14.5325     0.0000   120.0000 </r>
       <r>    14.6435     0.0000   120.0000 </r>
       <r>    14.7545     0.0000   120.0000 </r>
       <r>    14.8655     0.0000   120.0000 </r>
       <r>    14.9765     0.0000   120.0000 </r>
       <r>    15.0875     0.0000   120.0000 </r>
       <r>    15.1985     0.0000   120.0000 </r>
       <r>    15.3095     0.0000   120.0000 </r>
      </set>
     </set>
    </array>
   </total>
  </dos>
 </calculation>
 <structure name="finalpos" >
  <crystal>
   <varray name="basis" >
    <v>       4.20759812       0.00000000       0.00000000 </v>
    <v>       0.00000000       4.56286825       0.00000000 </v>
    <v>       0.00000000       0.00000000      11.78411723 </v>
   </varray>
   <i name="volume">    226.23991848 </i>
   <varray name="rec_basis" >
    <v>       0.23766528      -0.00000000       0.00000000 </v>
    <v>       0.00000000       0.21916039       0.00000000 </v>
    <v>      -0.00000000      -0.00000000       0.08485998 </v>
   </varray>
  </crystal>
  <varray name="positions" >
   <v>       0.25000000       0.11535153       0.12105944 </v>
   <v>       0.75000000       0.88464847       0.87894056 </v>
   <v>       0.75000000       0.61535153       0.37894056 </v>
   <v>       0.25000000       0.38464847       0.62105944 </v>
   <v>       0.75000000       0.52384045       0.14512047 </v>
   <v>       0.25000000       0.47615955       0.85487953 </v>
   <v>       0.25000000       0.02384045       0.35487953 </v>
   <v>       0.75000000       0.97615955       0.64512047 </v>
  </varray>
 </structure>
</modeling>
