 vasp.5.4.4.18Apr17-6-g9f103f2a35 (build Mar 20 2018 18:07:30) complex           
 executed on             LinuxGNU date 2020.07.04  07:48:04
 running on    8 total cores
 distrk:  each k-point on    8 cores,    1 groups
 distr:  one band on NCORES_PER_BAND=   2 cores,    4 groups


--------------------------------------------------------------------------------------------------------


 INCAR:
 POTCAR:    PAW_PBE Bi 08Apr2002                  
 POTCAR:    PAW_PBE Te 08Apr2002                  
 POTCAR:    PAW_PBE Bi 08Apr2002                  
   VRHFIN =Bi:                                                                  
   LEXCH  = PE                                                                  
   EATOM  =   150.8133 eV,   11.0845 Ry                                         
                                                                                
   TITEL  = PAW_PBE Bi 08Apr2002                                                
   LULTRA =        F    use ultrasoft PP ?                                      
   IUNSCR =        1    unscreen: 0-lin 1-nonlin 2-no                           
   RPACOR =    2.200    partial core radius                                     
   POMASS =  208.980; ZVAL   =    5.000    mass and valenz                      
   RCORE  =    3.000    outmost cutoff radius                                   
   RWIGS  =    3.090; RWIGS  =    1.635    wigner-seitz radius (au A)           
   ENMAX  =  105.037; ENMIN  =   78.777 eV                                      
   ICORE  =        3    local potential                                         
   LCOR   =        T    correct aug charges                                     
   LPAW   =        T    paw PP                                                  
   EAUG   =  265.427                                                            
   DEXC   =    0.000                                                            
   RMAX   =    3.067    core radius for proj-oper                               
   RAUG   =    1.300    factor for augmentation sphere                          
   RDEP   =    3.012    radius for radial grids                                 
   RDEPT  =    2.604    core radius for aug-charge                              
                                                                                
   Atomic configuration                                                         
   17 entries                                                                   
     n  l   j            E        occ.                                          
     1  0  0.50    -90639.6582   2.0000                                         
     2  0  0.50    -16282.4667   2.0000                                         
     2  1  1.50    -13922.8287   6.0000                                         
     3  0  0.50     -3930.4763   2.0000                                         
     3  1  1.50     -3256.7013   6.0000                                         
     3  2  2.50     -2581.6169  10.0000                                         
     4  0  0.50      -902.2614   2.0000                                         
     4  1  1.50      -681.5915   6.0000                                         
     4  2  2.50      -429.8249  10.0000                                         
     4  3  3.50      -152.6004  14.0000                                         
     5  0  0.50      -157.7156   2.0000                                         
     5  1  1.50       -95.8054   6.0000                                         
     5  2  2.50       -27.0806  10.0000                                         
     6  0  0.50       -14.4732   2.0000                                         
     6  1  1.50        -4.5702   3.0000                                         
     6  2  2.50        -2.7212   0.0000                                         
     5  3  2.50        -2.7212   0.0000                                         
   Description                                                                  
     l       E           TYP  RCUT    TYP  RCUT                                 
     0    -14.4732299     23  3.000                                             
     0    -12.2452434     23  3.000                                             
     1     -4.5701666     23  3.000                                             
     1    -13.6058260     23  3.000                                             
     2     -2.7211652     23  3.000                                             
     3     -1.3605826      7  3.000                                             
  local pseudopotential read in
  partial core-charges read in
  partial kinetic energy density read in
  kinetic energy density of atom read in
  atomic valenz-charges read in
  non local Contribution for L=           0  read in
    real space projection operators read in
  non local Contribution for L=           0  read in
    real space projection operators read in
  non local Contribution for L=           1  read in
    real space projection operators read in
  non local Contribution for L=           1  read in
    real space projection operators read in
  non local Contribution for L=           2  read in
    real space projection operators read in
    PAW grid and wavefunctions read in

   number of l-projection  operators is LMAX  =           5
   number of lm-projection operators is LMMAX =          13

 POTCAR:    PAW_PBE Te 08Apr2002                  
   VRHFIN =Te: s2p4                                                             
   LEXCH  = PE                                                                  
   EATOM  =   223.2721 eV,   16.4100 Ry                                         
                                                                                
   TITEL  = PAW_PBE Te 08Apr2002                                                
   LULTRA =        F    use ultrasoft PP ?                                      
   IUNSCR =        1    unscreen: 0-lin 1-nonlin 2-no                           
   RPACOR =    2.200    partial core radius                                     
   POMASS =  127.600; ZVAL   =    6.000    mass and valenz                      
   RCORE  =    2.300    outmost cutoff radius                                   
   RWIGS  =    2.900; RWIGS  =    1.535    wigner-seitz radius (au A)           
   ENMAX  =  174.982; ENMIN  =  131.236 eV                                      
   ICORE  =        3    local potential                                         
   LCOR   =        T    correct aug charges                                     
   LPAW   =        T    paw PP                                                  
   EAUG   =  368.792                                                            
   DEXC   =    0.000                                                            
   RMAX   =    2.345    core radius for proj-oper                               
   RAUG   =    1.300    factor for augmentation sphere                          
   RDEP   =    2.397    radius for radial grids                                 
   RDEPT  =    2.174    core radius for aug-charge                              
                                                                                
   Atomic configuration                                                         
   13 entries                                                                   
     n  l   j            E        occ.                                          
     1  0  0.50    -31621.2075   2.0000                                         
     2  0  0.50     -4848.7941   2.0000                                         
     2  1  1.50     -4352.1960   6.0000                                         
     3  0  0.50      -964.9612   2.0000                                         
     3  1  1.50      -803.6179   6.0000                                         
     3  2  2.50      -559.8710  10.0000                                         
     4  0  0.50      -164.3522   2.0000                                         
     4  1  1.50      -114.3756   6.0000                                         
     4  2  2.50       -41.6483  10.0000                                         
     5  0  0.50       -15.1072   2.0000                                         
     5  1  0.50        -5.9526   4.0000                                         
     5  2  1.50        -5.4423   0.0000                                         
     4  3  2.50        -5.4423   0.0000                                         
   Description                                                                  
     l       E           TYP  RCUT    TYP  RCUT                                 
     0    -15.1072389     23  2.300                                             
     0    -16.4678215     23  2.300                                             
     1     -5.9526306     23  2.300                                             
     1     -2.4873968     23  2.300                                             
     2     -5.4423304     23  2.300                                             
     3     -1.3605826     23  2.300                                             
  local pseudopotential read in
  partial core-charges read in
  partial kinetic energy density read in
  atomic valenz-charges read in
  non local Contribution for L=           0  read in
    real space projection operators read in
  non local Contribution for L=           0  read in
    real space projection operators read in
  non local Contribution for L=           1  read in
    real space projection operators read in
  non local Contribution for L=           1  read in
    real space projection operators read in
  non local Contribution for L=           2  read in
    real space projection operators read in
    PAW grid and wavefunctions read in

   number of l-projection  operators is LMAX  =           5
   number of lm-projection operators is LMMAX =          13

 WARNING: PSMAXN for non-local potential too small
          PSMAXN should be >   12.549083372950625       NTYP=           1
  PAW_PBE Bi 08Apr2002                  :
 energy of atom  1       EATOM= -150.8133
 kinetic energy error for atom=    0.0000 (will be added to EATOM!!)
  PAW_PBE Te 08Apr2002                  :
 energy of atom  2       EATOM= -223.2721
 kinetic energy error for atom=    0.0004 (will be added to EATOM!!)


 POSCAR: Bi2 Te3                                 
  positions in direct lattice
  No initial velocities read in
 exchange correlation table for  LEXCH =        8
   RHO(1)=    0.500       N(1)  =     2000
   RHO(2)=  100.500       N(2)  =     4000



--------------------------------------------------------------------------------------------------------


 ion  position               nearest neighbor table
   1  0.400  0.400  0.400-   5 3.08   5 3.08   5 3.08   3 3.26   3 3.26   3 3.26
   2  0.600  0.600  0.600-   4 3.08   4 3.08   4 3.08   3 3.26   3 3.26   3 3.26
   3  0.000  0.000  0.000-   2 3.26   2 3.26   1 3.26   1 3.26   2 3.26   1 3.26
   4  0.210  0.210  0.210-   2 3.08   2 3.08   2 3.08
   5  0.790  0.790  0.790-   1 3.08   1 3.08   1 3.08


IMPORTANT INFORMATION: All symmetrisations will be switched off!
NOSYMM: (Re-)initialisation of all symmetry stuff for point group C_1.



 KPOINTS: generate with stepsize: 0.01            
  k-points in reciprocal lattice
Space group operators:
 irot       det(A)        alpha          n_x          n_y          n_z        tau_x        tau_y        tau_z
    1     1.000000     0.000000     1.000000     0.000000     0.000000     0.000000     0.000000     0.000000


--------------------------------------------------------------------------------------------------------




 Dimension of arrays:
   k-points           NKPTS =     61   k-points in BZ     NKDIM =     61   number of bands    NBANDS=     88
   number of dos      NEDOS =    301   number of ions     NIONS =      5
   non local maximal  LDIM  =      5   non local SUM 2l+1 LMDIM =     13
   total plane-waves  NPLWV = 592704
   max r-space proj   IRMAX =      1   max aug-charges    IRDMAX= ******
   dimension x,y,z NGX =    84 NGY =   84 NGZ =   84
   dimension x,y,z NGXF=   168 NGYF=  168 NGZF=  168
   support grid    NGXF=   336 NGYF=  336 NGZF=  336
   ions per type =               2   3
   NGX,Y,Z   is equivalent  to a cutoff of  13.35, 13.35, 13.35 a.u.
   NGXF,Y,Z  is equivalent  to a cutoff of  26.70, 26.70, 26.70 a.u.

 SYSTEM =  BiTe                                    
 POSCAR =  Bi2 Te3                                 

 Startparameter for this run:
   NWRITE =      2    write-flag & timer
   PREC   = accura    normal or accurate (medium, high low for compatibility)
   ISTART =      0    job   : 0-new  1-cont  2-samecut
   ICHARG =     11    charge: 1-file 2-atom 10-const
   ISPIN  =      1    spin polarized calculation?
   LNONCOLLINEAR =      T non collinear calculations
   LSORBIT =      T    spin-orbit coupling
   INIWAV =      1    electr: 0-lowe 1-rand  2-diag
   LASPH  =      F    aspherical Exc in radial PAW
   METAGGA=      F    non-selfconsistent MetaGGA calc.

 Electronic Relaxation 1
   ENCUT  =  600.0 eV  44.10 Ry    6.64 a.u.  20.89 20.89 20.89*2*pi/ulx,y,z
   ENINI  =  600.0     initial cutoff
   ENAUG  =  368.8 eV  augmentation charge cutoff
   NELM   =     60;   NELMIN=  2; NELMDL=  0     # of ELM steps 
   EDIFF  = 0.1E-06   stopping-criterion for ELM
   LREAL  =      F    real-space projection
   NLSPLINE    = F    spline interpolate recip. space projectors
   LCOMPAT=      F    compatible to vasp.4.4
   GGA_COMPAT  = F    GGA compatible to vasp.4.4-vasp.4.6
   LMAXPAW     = -100 max onsite density
   LMAXMIX     =    4 max onsite mixed and CHGCAR
   VOSKOWN=      0    Vosko Wilk Nusair interpolation
   ROPT   =    0.00000   0.00000
 Ionic relaxation
   EDIFFG = -.1E-02   stopping-criterion for IOM
   NSW    =      0    number of steps for IOM
   NBLOCK =      1;   KBLOCK =      1    inner block; outer block 
   IBRION =     -1    ionic relax: 0-MD 1-quasi-New 2-CG
   NFREE  =      0    steps in history (QN), initial steepest desc. (CG)
   ISIF   =      2    stress and relaxation
   IWAVPR =     10    prediction:  0-non 1-charg 2-wave 3-comb
   ISYM   =     -1    0-nonsym 1-usesym 2-fastsym
   LCORR  =      T    Harris-Foulkes like correction to forces

   POTIM  = 0.5000    time-step for ionic-motion
   TEIN   =    0.0    initial temperature
   TEBEG  =    0.0;   TEEND  =   0.0 temperature during run
   SMASS  =  -3.00    Nose mass-parameter (am)
   estimated Nose-frequenzy (Omega)   =  0.10E-29 period in steps =****** mass=  -0.250E-26a.u.
   SCALEE = 1.0000    scale energy and forces
   NPACO  =    256;   APACO  = 16.0  distance and # of slots for P.C.
   PSTRESS=    0.0 pullay stress

  Mass of Ions in am
   POMASS = 208.98127.60
  Ionic Valenz
   ZVAL   =   5.00  6.00
  Atomic Wigner-Seitz radii
   RWIGS  =  -1.00 -1.00
  virtual crystal weights 
   VCA    =   1.00  1.00
   NELECT =      28.0000    total number of electrons
   NUPDOWN=      -1.0000    fix difference up-down

 DOS related values:
   EMIN   =  10.00;   EMAX   =-10.00  energy-range for DOS
   EFERMI =   0.00
   ISMEAR =     0;   SIGMA  =   0.01  broadening in eV -4-tet -1-fermi 0-gaus

 Electronic relaxation 2 (details)
   IALGO  =     58    algorithm
   LDIAG  =      T    sub-space diagonalisation (order eigenvalues)
   LSUBROT=      F    optimize rotation matrix (better conditioning)
   TURBO    =      0    0=normal 1=particle mesh
   IRESTART =      0    0=no restart 2=restart with 2 vectors
   NREBOOT  =      0    no. of reboots
   NMIN     =      0    reboot dimension
   EREF     =   0.00    reference energy to select bands
   IMIX   =      4    mixing-type and parameters
     AMIX     =   0.40;   BMIX     =  1.00
     AMIX_MAG =   1.60;   BMIX_MAG =  1.00
     AMIN     =   0.10
     WC   =   100.;   INIMIX=   1;  MIXPRE=   1;  MAXMIX= -45

 Intra band minimization:
   WEIMIN = 0.0000     energy-eigenvalue tresh-hold
   EBREAK =  0.28E-09  absolut break condition
   DEPER  =   0.30     relativ break condition  

   TIME   =   0.40     timestep for ELM

  volume/ion in A,a.u.               =      34.53       232.99
  Fermi-wavevector in a.u.,A,eV,Ry     =   0.892805  1.687157 10.845211  0.797101
  Thomas-Fermi vector in A             =   2.014801

 Write flags
   LWAVE        =      F    write WAVECAR
   LDOWNSAMPLE  =      F    k-point downsampling of WAVECAR
   LCHARG       =      F    write CHGCAR
   LVTOT        =      F    write LOCPOT, total local potential
   LVHAR        =      F    write LOCPOT, Hartree potential only
   LELF         =      F    write electronic localiz. function (ELF)
   LORBIT       =      0    0 simple, 1 ext, 2 COOP (PROOUT), +10 PAW based schemes


 Dipole corrections
   LMONO  =      F    monopole corrections only (constant potential shift)
   LDIPOL =      F    correct potential (dipole corrections)
   IDIPOL =      0    1-x, 2-y, 3-z, 4-all directions 
   EPSILON=  1.0000000 bulk dielectric constant

 Exchange correlation treatment:
   GGA     =    --    GGA type
   LEXCH   =     8    internal setting for exchange type
   VOSKOWN=      0    Vosko Wilk Nusair interpolation
   LHFCALC =     F    Hartree Fock is set to
   LHFONE  =     F    Hartree Fock one center treatment
   AEXX    =    0.0000 exact exchange contribution

 Linear response parameters
   LEPSILON=     F    determine dielectric tensor
   LRPA    =     F    only Hartree local field effects (RPA)
   LNABLA  =     F    use nabla operator in PAW spheres
   LVEL    =     F    velocity operator in full k-point grid
   LINTERFAST=   F  fast interpolation
   KINTER  =     0    interpolate to denser k-point grid
   CSHIFT  =0.1000    complex shift for real part using Kramers Kronig
   OMEGAMAX=  -1.0    maximum frequency
   DEG_THRESHOLD= 0.2000000E-02 threshold for treating states as degnerate
   RTIME   =   -0.100 relaxation time in fs
  (WPLASMAI=    0.000 imaginary part of plasma frequency in eV, 0.658/RTIME)
   DFIELD  = 0.0000000 0.0000000 0.0000000 field for delta impulse in time

 Orbital magnetization related:
   ORBITALMAG=     F  switch on orbital magnetization
   LCHIMAG   =     F  perturbation theory with respect to B field
   DQ        =  0.001000  dq finite difference perturbation B field
   LLRAUG    =     F  two centre corrections for induced B field



--------------------------------------------------------------------------------------------------------


 Static calculation
 charge density and potential remain constant during run
 non collinear spin polarized calculation
 Conjugate gradient for all bands (Freysoldt, et al. PRB 79, 241103 (2009))
 preconditioned conjugated gradient   charged. constant during bandupdate  
 perform sub-space diagonalisation
    before iterative eigenvector-optimisation
 no mixing
 using additional bands           74
 reciprocal scheme for non local part
 use partial core corrections
 calculate Harris-corrections to forces   (improved forces if not selfconsistent)
 use gradient corrections 
 WARNING: stress and forces are not correct
  (second derivative of E(xc) not defined)
 use of overlap-Matrix (Vanderbilt PP)
 Gauss-broadening in eV      SIGMA  =   0.01


--------------------------------------------------------------------------------------------------------


  energy-cutoff  :      600.00
  volume of cell :      172.63
      direct lattice vectors                 reciprocal lattice vectors
    10.222282710 -2.216677340  0.000000000     0.048912754 -0.225562824 -0.125089241
    10.222282710  2.216677340  0.000000000     0.048912754  0.225562824 -0.125089241
     9.741601570  0.000000000  3.809189020    -0.000000000  0.000000000  0.262523071

  length of vectors
    10.459862439 10.459862439 10.459862434     0.262523071  0.262523071  0.262523071



 k-points in units of 2pi/SCALE and weight: generate with stepsize: 0.01            
   0.02445638  0.00000000  0.00308615       0.016
   0.01844119  0.00000000  0.00308615       0.016
   0.02144878  0.00000000  0.00308615       0.016
   0.02746397  0.00000000  0.00308615       0.016
   0.03047156  0.00000000  0.00308615       0.016
   0.02445638 -0.00601519  0.00308615       0.016
   0.02445638 -0.00300759  0.00308615       0.016
   0.02445638  0.00300759  0.00308615       0.016
   0.02445638  0.00601519  0.00308615       0.016
   0.02445638  0.00000000 -0.00292904       0.016
   0.02445638  0.00000000  0.00007855       0.016
   0.02445638  0.00000000  0.00609374       0.016
   0.02445638  0.00000000  0.00910133       0.016
   0.01844119 -0.00601519  0.00308615       0.016
   0.02144878 -0.00601519  0.00308615       0.016
   0.02746397 -0.00601519  0.00308615       0.016
   0.03047156 -0.00601519  0.00308615       0.016
   0.01844119 -0.00300759  0.00308615       0.016
   0.02144878 -0.00300759  0.00308615       0.016
   0.02746397 -0.00300759  0.00308615       0.016
   0.03047156 -0.00300759  0.00308615       0.016
   0.01844119  0.00300759  0.00308615       0.016
   0.02144878  0.00300759  0.00308615       0.016
   0.02746397  0.00300759  0.00308615       0.016
   0.03047156  0.00300759  0.00308615       0.016
   0.01844119  0.00601519  0.00308615       0.016
   0.02144878  0.00601519  0.00308615       0.016
   0.02746397  0.00601519  0.00308615       0.016
   0.03047156  0.00601519  0.00308615       0.016
   0.01844119  0.00000000 -0.00292904       0.016
   0.02144878  0.00000000 -0.00292904       0.016
   0.02746397  0.00000000 -0.00292904       0.016
   0.03047156  0.00000000 -0.00292904       0.016
   0.01844119  0.00000000  0.00007855       0.016
   0.02144878  0.00000000  0.00007855       0.016
   0.02746397  0.00000000  0.00007855       0.016
   0.03047156  0.00000000  0.00007855       0.016
   0.01844119  0.00000000  0.00609374       0.016
   0.02144878  0.00000000  0.00609374       0.016
   0.02746397  0.00000000  0.00609374       0.016
   0.03047156  0.00000000  0.00609374       0.016
   0.01844119  0.00000000  0.00910133       0.016
   0.02144878  0.00000000  0.00910133       0.016
   0.02746397  0.00000000  0.00910133       0.016
   0.03047156  0.00000000  0.00910133       0.016
   0.02445638 -0.00601519 -0.00292904       0.016
   0.02445638 -0.00300759 -0.00292904       0.016
   0.02445638  0.00300759 -0.00292904       0.016
   0.02445638  0.00601519 -0.00292904       0.016
   0.02445638 -0.00601519  0.00007855       0.016
   0.02445638 -0.00300759  0.00007855       0.016
   0.02445638  0.00300759  0.00007855       0.016
   0.02445638  0.00601519  0.00007855       0.016
   0.02445638 -0.00601519  0.00609374       0.016
   0.02445638 -0.00300759  0.00609374       0.016
   0.02445638  0.00300759  0.00609374       0.016
   0.02445638  0.00601519  0.00609374       0.016
   0.02445638 -0.00601519  0.00910133       0.016
   0.02445638 -0.00300759  0.00910133       0.016
   0.02445638  0.00300759  0.00910133       0.016
   0.02445638  0.00601519  0.00910133       0.016

 k-points in reciprocal lattice and weights: generate with stepsize: 0.01            
   0.25000000  0.25000000  0.25000000       0.016
   0.18851108  0.18851108  0.19140246       0.016
   0.21925554  0.21925554  0.22070123       0.016
   0.28074446  0.28074446  0.27929877       0.016
   0.31148892  0.31148892  0.30859754       0.016
   0.26333372  0.23666628  0.25000000       0.016
   0.25666686  0.24333314  0.25000000       0.016
   0.24333314  0.25666686  0.25000000       0.016
   0.23666628  0.26333372  0.25000000       0.016
   0.25000000  0.25000000  0.22708702       0.016
   0.25000000  0.25000000  0.23854351       0.016
   0.25000000  0.25000000  0.26145649       0.016
   0.25000000  0.25000000  0.27291298       0.016
   0.20184480  0.17517735  0.19140246       0.016
   0.23258926  0.20592181  0.22070123       0.016
   0.29407819  0.26741074  0.27929877       0.016
   0.32482265  0.29815520  0.30859754       0.016
   0.19517794  0.18184422  0.19140246       0.016
   0.22592240  0.21258868  0.22070123       0.016
   0.28741132  0.27407760  0.27929877       0.016
   0.31815578  0.30482206  0.30859754       0.016
   0.18184422  0.19517794  0.19140246       0.016
   0.21258868  0.22592240  0.22070123       0.016
   0.27407760  0.28741132  0.27929877       0.016
   0.30482206  0.31815578  0.30859754       0.016
   0.17517735  0.20184480  0.19140246       0.016
   0.20592181  0.23258926  0.22070123       0.016
   0.26741074  0.29407819  0.27929877       0.016
   0.29815520  0.32482265  0.30859754       0.016
   0.18851108  0.18851108  0.16848949       0.016
   0.21925554  0.21925554  0.19778825       0.016
   0.28074446  0.28074446  0.25638579       0.016
   0.31148892  0.31148892  0.28568456       0.016
   0.18851108  0.18851108  0.17994598       0.016
   0.21925554  0.21925554  0.20924474       0.016
   0.28074446  0.28074446  0.26784228       0.016
   0.31148892  0.31148892  0.29714105       0.016
   0.18851108  0.18851108  0.20285895       0.016
   0.21925554  0.21925554  0.23215772       0.016
   0.28074446  0.28074446  0.29075526       0.016
   0.31148892  0.31148892  0.32005402       0.016
   0.18851108  0.18851108  0.21431544       0.016
   0.21925554  0.21925554  0.24361421       0.016
   0.28074446  0.28074446  0.30221175       0.016
   0.31148892  0.31148892  0.33151051       0.016
   0.26333372  0.23666628  0.22708702       0.016
   0.25666686  0.24333314  0.22708702       0.016
   0.24333314  0.25666686  0.22708702       0.016
   0.23666628  0.26333372  0.22708702       0.016
   0.26333372  0.23666628  0.23854351       0.016
   0.25666686  0.24333314  0.23854351       0.016
   0.24333314  0.25666686  0.23854351       0.016
   0.23666628  0.26333372  0.23854351       0.016
   0.26333372  0.23666628  0.26145649       0.016
   0.25666686  0.24333314  0.26145649       0.016
   0.24333314  0.25666686  0.26145649       0.016
   0.23666628  0.26333372  0.26145649       0.016
   0.26333372  0.23666628  0.27291298       0.016
   0.25666686  0.24333314  0.27291298       0.016
   0.24333314  0.25666686  0.27291298       0.016
   0.23666628  0.26333372  0.27291298       0.016

 position of ions in fractional coordinates (direct lattice) 
   0.39979833  0.39979833  0.39979833
   0.60020167  0.60020167  0.60020167
   0.00000000  0.00000000  0.00000000
   0.21048582  0.21048582  0.21048582
   0.78951418  0.78951418  0.78951418

 position of ions in cartesian coordinates  (Angst):
  12.06837915  0.00000000  1.52290741
  18.11778784  0.00000000  2.28628161
   0.00000000  0.00000000  0.00000000
   6.35376011  0.00000000  0.80178027
  23.83240688  0.00000000  3.00740875

 Euler angles ALPHA=     0.0000000  BETA=     0.0000000

 transformation matrix from SAXIS to cartesian coordinates
 ---------------------------------------------------------
     1.0000000 m_x    -0.0000000 m_y     0.0000000 m_z
     0.0000000 m_x     1.0000000 m_y     0.0000000 m_z
    -0.0000000 m_x     0.0000000 m_y     1.0000000 m_z

 transformation matrix from cartesian coordinates to SAXIS
 ---------------------------------------------------------
     1.0000000 m_x     0.0000000 m_y    -0.0000000 m_z
    -0.0000000 m_x     1.0000000 m_y     0.0000000 m_z
     0.0000000 m_x     0.0000000 m_y     1.0000000 m_z




--------------------------------------------------------------------------------------------------------


 k-point  1 :   0.2500 0.2500 0.2500  plane waves:   11488
 k-point  2 :   0.1885 0.1885 0.1914  plane waves:   11518
 k-point  3 :   0.2193 0.2193 0.2207  plane waves:   11498
 k-point  4 :   0.2807 0.2807 0.2793  plane waves:   11492
 k-point  5 :   0.3115 0.3115 0.3086  plane waves:   11500
 k-point  6 :   0.2633 0.2367 0.2500  plane waves:   11494
 k-point  7 :   0.2567 0.2433 0.2500  plane waves:   11486
 k-point  8 :   0.2433 0.2567 0.2500  plane waves:   11486
 k-point  9 :   0.2367 0.2633 0.2500  plane waves:   11494
 k-point 10 :   0.2500 0.2500 0.2271  plane waves:   11492
 k-point 11 :   0.2500 0.2500 0.2385  plane waves:   11488
 k-point 12 :   0.2500 0.2500 0.2615  plane waves:   11486
 k-point 13 :   0.2500 0.2500 0.2729  plane waves:   11502
 k-point 14 :   0.2018 0.1752 0.1914  plane waves:   11522
 k-point 15 :   0.2326 0.2059 0.2207  plane waves:   11508
 k-point 16 :   0.2941 0.2674 0.2793  plane waves:   11504
 k-point 17 :   0.3248 0.2982 0.3086  plane waves:   11512
 k-point 18 :   0.1952 0.1818 0.1914  plane waves:   11514
 k-point 19 :   0.2259 0.2126 0.2207  plane waves:   11508
 k-point 20 :   0.2874 0.2741 0.2793  plane waves:   11500
 k-point 21 :   0.3182 0.3048 0.3086  plane waves:   11504
 k-point 22 :   0.1818 0.1952 0.1914  plane waves:   11514
 k-point 23 :   0.2126 0.2259 0.2207  plane waves:   11508
 k-point 24 :   0.2741 0.2874 0.2793  plane waves:   11500
 k-point 25 :   0.3048 0.3182 0.3086  plane waves:   11504
 k-point 26 :   0.1752 0.2018 0.1914  plane waves:   11522
 k-point 27 :   0.2059 0.2326 0.2207  plane waves:   11508
 k-point 28 :   0.2674 0.2941 0.2793  plane waves:   11504
 k-point 29 :   0.2982 0.3248 0.3086  plane waves:   11512
 k-point 30 :   0.1885 0.1885 0.1685  plane waves:   11524
 k-point 31 :   0.2193 0.2193 0.1978  plane waves:   11508
 k-point 32 :   0.2807 0.2807 0.2564  plane waves:   11506
 k-point 33 :   0.3115 0.3115 0.2857  plane waves:   11512
 k-point 34 :   0.1885 0.1885 0.1799  plane waves:   11514
 k-point 35 :   0.2193 0.2193 0.2092  plane waves:   11508
 k-point 36 :   0.2807 0.2807 0.2678  plane waves:   11500
 k-point 37 :   0.3115 0.3115 0.2971  plane waves:   11504
 k-point 38 :   0.1885 0.1885 0.2029  plane waves:   11506
 k-point 39 :   0.2193 0.2193 0.2322  plane waves:   11498
 k-point 40 :   0.2807 0.2807 0.2908  plane waves:   11504
 k-point 41 :   0.3115 0.3115 0.3201  plane waves:   11502
 k-point 42 :   0.1885 0.1885 0.2143  plane waves:   11506
 k-point 43 :   0.2193 0.2193 0.2436  plane waves:   11498
 k-point 44 :   0.2807 0.2807 0.3022  plane waves:   11506
 k-point 45 :   0.3115 0.3115 0.3315  plane waves:   11510
 k-point 46 :   0.2633 0.2367 0.2271  plane waves:   11502
 k-point 47 :   0.2567 0.2433 0.2271  plane waves:   11496
 k-point 48 :   0.2433 0.2567 0.2271  plane waves:   11496
 k-point 49 :   0.2367 0.2633 0.2271  plane waves:   11502
 k-point 50 :   0.2633 0.2367 0.2385  plane waves:   11496
 k-point 51 :   0.2567 0.2433 0.2385  plane waves:   11492
 k-point 52 :   0.2433 0.2567 0.2385  plane waves:   11492
 k-point 53 :   0.2367 0.2633 0.2385  plane waves:   11496
 k-point 54 :   0.2633 0.2367 0.2615  plane waves:   11506
 k-point 55 :   0.2567 0.2433 0.2615  plane waves:   11500
 k-point 56 :   0.2433 0.2567 0.2615  plane waves:   11500
 k-point 57 :   0.2367 0.2633 0.2615  plane waves:   11506
 k-point 58 :   0.2633 0.2367 0.2729  plane waves:   11508
 k-point 59 :   0.2567 0.2433 0.2729  plane waves:   11500
 k-point 60 :   0.2433 0.2567 0.2729  plane waves:   11500
 k-point 61 :   0.2367 0.2633 0.2729  plane waves:   11508

 maximum and minimum number of plane-waves per node :      5772     5740

 maximum number of plane-waves:     11524
 maximum index in each direction: 
   IXMAX=   20   IYMAX=   20   IZMAX=   20
   IXMIN=  -21   IYMIN=  -21   IZMIN=  -21


 parallel 3D FFT for wavefunctions:
    minimum data exchange during FFTs selected (reduces bandwidth)
 parallel 3D FFT for charge:
    minimum data exchange during FFTs selected (reduces bandwidth)


 total amount of memory used by VASP MPI-rank0   806603. kBytes
=======================================================================

   base      :      30000. kBytes
   nonl-proj :      36873. kBytes
   fftplans  :     182231. kBytes
   grid      :     180182. kBytes
   one-center:         97. kBytes
   wavefun   :     377220. kBytes

     INWAV:  cpu time    0.0000: real time    0.0001
 initial charge density was supplied:
 number of electron      28.0000001 magnetization      -0.0000580     -0.0000594     -0.0000590
 keeping initial charge density in first step


--------------------------------------------------------------------------------------------------------


 Maximum index for augmentation-charges       317341 (set IRDMAX)


--------------------------------------------------------------------------------------------------------


 First call to EWALD:  gamma=   0.318
 Maximum number of real-space cells 4x 4x 4
 Maximum number of reciprocal cells 5x 5x 5

    FEWALD:  cpu time    0.0011: real time    0.0011


--------------------------------------- Iteration      1(   1)  ---------------------------------------


    POTLOK:  cpu time    4.2198: real time    4.2333
    SETDIJ:  cpu time    7.1969: real time    7.2307
    TRIAL :  cpu time  249.2917: real time  255.6831
    CORREC:  cpu time    0.0021: real time    0.0021
    --------------------------------------------
      LOOP:  cpu time  260.9030: real time  267.3524

 eigenvalue-minimisations  : 10736
 total energy-change (2. order) : 0.1413148E+03  (-0.1469859E+04)
 number of electron      28.0000001 magnetization      -0.0000580     -0.0000594     -0.0000590
 augmentation part       28.0000001 magnetization      -0.0000580     -0.0000594     -0.0000590

 Free energy of the ion-electron system (eV)
  ---------------------------------------------------
  alpha Z        PSCENC =         5.99831677
  Ewald energy   TEWEN  =      -983.58522533
  -Hartree energ DENC   =       -59.98562904
  -exchange      EXHF   =         0.00000000
  -V(xc)+E(xc)   XCENC  =      -303.85049003
  PAW double counting   =      1910.19755357    -1561.17602897
  entropy T*S    EENTRO =        -0.00015728
  eigenvalues    EBANDS =       162.27491866
  atomic energy  EATOM  =       971.44149227
  ---------------------------------------------------
  free energy    TOTEN  =       141.31475063 eV

  energy without entropy =      141.31490791  energy(sigma->0) =      141.31482927


--------------------------------------------------------------------------------------------------------




--------------------------------------- Iteration      1(   2)  ---------------------------------------


    TRIAL :  cpu time  280.9812: real time  288.0109
    CORREC:  cpu time    0.0015: real time    0.0015
    --------------------------------------------
      LOOP:  cpu time  280.9830: real time  288.0127

 eigenvalue-minimisations  : 12952
 total energy-change (2. order) :-0.1310390E+03  (-0.1177082E+03)
 number of electron      28.0000001 magnetization      -0.0000580     -0.0000594     -0.0000590
 augmentation part       28.0000001 magnetization      -0.0000580     -0.0000594     -0.0000590

 Free energy of the ion-electron system (eV)
  ---------------------------------------------------
  alpha Z        PSCENC =         5.99831677
  Ewald energy   TEWEN  =      -983.58522533
  -Hartree energ DENC   =       -59.98562904
  -exchange      EXHF   =         0.00000000
  -V(xc)+E(xc)   XCENC  =      -303.85049003
  PAW double counting   =      1910.19755357    -1561.17602897
  entropy T*S    EENTRO =        -0.00000005
  eigenvalues    EBANDS =        31.23576274
  atomic energy  EATOM  =       971.44149227
  ---------------------------------------------------
  free energy    TOTEN  =        10.27575194 eV

  energy without entropy =       10.27575198  energy(sigma->0) =       10.27575196


--------------------------------------------------------------------------------------------------------




--------------------------------------- Iteration      1(   3)  ---------------------------------------


    TRIAL :  cpu time  270.2459: real time  276.0854
    CORREC:  cpu time    0.0010: real time    0.0007
    --------------------------------------------
      LOOP:  cpu time  270.2472: real time  276.0863

 eigenvalue-minimisations  : 12256
 total energy-change (2. order) :-0.1251738E+02  (-0.1216176E+02)
 number of electron      28.0000001 magnetization      -0.0000580     -0.0000594     -0.0000590
 augmentation part       28.0000001 magnetization      -0.0000580     -0.0000594     -0.0000590

 Free energy of the ion-electron system (eV)
  ---------------------------------------------------
  alpha Z        PSCENC =         5.99831677
  Ewald energy   TEWEN  =      -983.58522533
  -Hartree energ DENC   =       -59.98562904
  -exchange      EXHF   =         0.00000000
  -V(xc)+E(xc)   XCENC  =      -303.85049003
  PAW double counting   =      1910.19755357    -1561.17602897
  entropy T*S    EENTRO =        -0.00000000
  eigenvalues    EBANDS =        18.71837912
  atomic energy  EATOM  =       971.44149227
  ---------------------------------------------------
  free energy    TOTEN  =        -2.24163163 eV

  energy without entropy =       -2.24163163  energy(sigma->0) =       -2.24163163


--------------------------------------------------------------------------------------------------------




--------------------------------------- Iteration      1(   4)  ---------------------------------------


    TRIAL :  cpu time  273.8079: real time  280.0872
    CORREC:  cpu time    0.0007: real time    0.0007
    --------------------------------------------
      LOOP:  cpu time  273.8090: real time  280.0888

 eigenvalue-minimisations  : 12576
 total energy-change (2. order) :-0.3254453E+00  (-0.3250671E+00)
 number of electron      28.0000001 magnetization      -0.0000580     -0.0000594     -0.0000590
 augmentation part       28.0000001 magnetization      -0.0000580     -0.0000594     -0.0000590

 Free energy of the ion-electron system (eV)
  ---------------------------------------------------
  alpha Z        PSCENC =         5.99831677
  Ewald energy   TEWEN  =      -983.58522533
  -Hartree energ DENC   =       -59.98562904
  -exchange      EXHF   =         0.00000000
  -V(xc)+E(xc)   XCENC  =      -303.85049003
  PAW double counting   =      1910.19755357    -1561.17602897
  entropy T*S    EENTRO =        -0.00000000
  eigenvalues    EBANDS =        18.39293383
  atomic energy  EATOM  =       971.44149227
  ---------------------------------------------------
  free energy    TOTEN  =        -2.56707693 eV

  energy without entropy =       -2.56707693  energy(sigma->0) =       -2.56707693


--------------------------------------------------------------------------------------------------------




--------------------------------------- Iteration      1(   5)  ---------------------------------------


    TRIAL :  cpu time  266.1370: real time  270.8925
    CORREC:  cpu time    0.0007: real time    0.0007
    --------------------------------------------
      LOOP:  cpu time  266.1403: real time  270.8948

 eigenvalue-minimisations  : 12000
 total energy-change (2. order) :-0.8314772E-02  (-0.8314260E-02)
 number of electron      28.0000001 magnetization      -0.0000580     -0.0000594     -0.0000590
 augmentation part       28.0000001 magnetization      -0.0000580     -0.0000594     -0.0000590

 Free energy of the ion-electron system (eV)
  ---------------------------------------------------
  alpha Z        PSCENC =         5.99831677
  Ewald energy   TEWEN  =      -983.58522533
  -Hartree energ DENC   =       -59.98562904
  -exchange      EXHF   =         0.00000000
  -V(xc)+E(xc)   XCENC  =      -303.85049003
  PAW double counting   =      1910.19755357    -1561.17602897
  entropy T*S    EENTRO =        -0.00000000
  eigenvalues    EBANDS =        18.38461905
  atomic energy  EATOM  =       971.44149227
  ---------------------------------------------------
  free energy    TOTEN  =        -2.57539170 eV

  energy without entropy =       -2.57539170  energy(sigma->0) =       -2.57539170


--------------------------------------------------------------------------------------------------------




--------------------------------------- Iteration      1(   6)  ---------------------------------------


    TRIAL :  cpu time  181.2950: real time  184.1649
    CORREC:  cpu time   47.3414: real time   47.7755
    --------------------------------------------
      LOOP:  cpu time  228.6367: real time  231.9406

 eigenvalue-minimisations  :     0
 total energy-change (2. order) : 0.6593837E-11  (-0.2955964E-03)
 number of electron      28.0000001 magnetization      -0.0000580     -0.0000594     -0.0000590
 augmentation part       28.0000001 magnetization      -0.0000580     -0.0000594     -0.0000590

 Free energy of the ion-electron system (eV)
  ---------------------------------------------------
  alpha Z        PSCENC =         5.99831677
  Ewald energy   TEWEN  =      -983.58522533
  -Hartree energ DENC   =       -59.98562904
  -exchange      EXHF   =         0.00000000
  -V(xc)+E(xc)   XCENC  =      -303.85049003
  PAW double counting   =      1910.19755357    -1561.17602897
  entropy T*S    EENTRO =        -0.00000000
  eigenvalues    EBANDS =        18.38461905
  atomic energy  EATOM  =       971.44149227
  ---------------------------------------------------
  free energy    TOTEN  =        -2.57539170 eV

  energy without entropy =       -2.57539170  energy(sigma->0) =       -2.57539170


--------------------------------------------------------------------------------------------------------




--------------------------------------- Iteration      1(   7)  ---------------------------------------


    TRIAL :  cpu time  181.1225: real time  184.5922
    CORREC:  cpu time   46.9148: real time   47.6446
    --------------------------------------------
      LOOP:  cpu time  228.0383: real time  232.2372

 eigenvalue-minimisations  :     0
 total energy-change (2. order) :-0.2955963E-03  (-0.8243765E-04)
 number of electron      28.0000001 magnetization      -0.0000580     -0.0000594     -0.0000590
 augmentation part       28.0000001 magnetization      -0.0000580     -0.0000594     -0.0000590

 Free energy of the ion-electron system (eV)
  ---------------------------------------------------
  alpha Z        PSCENC =         5.99831677
  Ewald energy   TEWEN  =      -983.58522533
  -Hartree energ DENC   =       -59.98562904
  -exchange      EXHF   =         0.00000000
  -V(xc)+E(xc)   XCENC  =      -303.85049003
  PAW double counting   =      1910.19755357    -1561.17602897
  entropy T*S    EENTRO =        -0.00000000
  eigenvalues    EBANDS =        18.38432346
  atomic energy  EATOM  =       971.44149227
  ---------------------------------------------------
  free energy    TOTEN  =        -2.57568730 eV

  energy without entropy =       -2.57568730  energy(sigma->0) =       -2.57568730


--------------------------------------------------------------------------------------------------------




--------------------------------------- Iteration      1(   8)  ---------------------------------------


    TRIAL :  cpu time  181.0414: real time  185.0089
    CORREC:  cpu time   46.3828: real time   47.7145
    --------------------------------------------
      LOOP:  cpu time  227.4248: real time  232.7242

 eigenvalue-minimisations  :     0
 total energy-change (2. order) :-0.8243750E-04  (-0.2584384E-04)
 number of electron      28.0000001 magnetization      -0.0000580     -0.0000594     -0.0000590
 augmentation part       28.0000001 magnetization      -0.0000580     -0.0000594     -0.0000590

 Free energy of the ion-electron system (eV)
  ---------------------------------------------------
  alpha Z        PSCENC =         5.99831677
  Ewald energy   TEWEN  =      -983.58522533
  -Hartree energ DENC   =       -59.98562904
  -exchange      EXHF   =         0.00000000
  -V(xc)+E(xc)   XCENC  =      -303.85049003
  PAW double counting   =      1910.19755357    -1561.17602897
  entropy T*S    EENTRO =        -0.00000000
  eigenvalues    EBANDS =        18.38424102
  atomic energy  EATOM  =       971.44149227
  ---------------------------------------------------
  free energy    TOTEN  =        -2.57576973 eV

  energy without entropy =       -2.57576973  energy(sigma->0) =       -2.57576973


--------------------------------------------------------------------------------------------------------




--------------------------------------- Iteration      1(   9)  ---------------------------------------


    TRIAL :  cpu time  181.1740: real time  184.8517
    CORREC:  cpu time   46.5594: real time   48.0176
    --------------------------------------------
      LOOP:  cpu time  227.7340: real time  232.8700

 eigenvalue-minimisations  :     0
 total energy-change (2. order) :-0.2584368E-04  (-0.1801464E-05)
 number of electron      28.0000001 magnetization      -0.0000580     -0.0000594     -0.0000590
 augmentation part       28.0000001 magnetization      -0.0000580     -0.0000594     -0.0000590

 Free energy of the ion-electron system (eV)
  ---------------------------------------------------
  alpha Z        PSCENC =         5.99831677
  Ewald energy   TEWEN  =      -983.58522533
  -Hartree energ DENC   =       -59.98562904
  -exchange      EXHF   =         0.00000000
  -V(xc)+E(xc)   XCENC  =      -303.85049003
  PAW double counting   =      1910.19755357    -1561.17602897
  entropy T*S    EENTRO =        -0.00000000
  eigenvalues    EBANDS =        18.38421518
  atomic energy  EATOM  =       971.44149227
  ---------------------------------------------------
  free energy    TOTEN  =        -2.57579558 eV

  energy without entropy =       -2.57579558  energy(sigma->0) =       -2.57579558


--------------------------------------------------------------------------------------------------------




--------------------------------------- Iteration      1(  10)  ---------------------------------------


    TRIAL :  cpu time  180.4592: real time  183.1866
    CORREC:  cpu time   46.5530: real time   47.7646
    --------------------------------------------
      LOOP:  cpu time  227.0126: real time  230.9519

 eigenvalue-minimisations  :     0
 total energy-change (2. order) :-0.1801519E-05  (-0.1401274E-06)
 number of electron      28.0000001 magnetization      -0.0000580     -0.0000594     -0.0000590
 augmentation part       28.0000001 magnetization      -0.0000580     -0.0000594     -0.0000590

 Free energy of the ion-electron system (eV)
  ---------------------------------------------------
  alpha Z        PSCENC =         5.99831677
  Ewald energy   TEWEN  =      -983.58522533
  -Hartree energ DENC   =       -59.98562904
  -exchange      EXHF   =         0.00000000
  -V(xc)+E(xc)   XCENC  =      -303.85049003
  PAW double counting   =      1910.19755357    -1561.17602897
  entropy T*S    EENTRO =        -0.00000000
  eigenvalues    EBANDS =        18.38421338
  atomic energy  EATOM  =       971.44149227
  ---------------------------------------------------
  free energy    TOTEN  =        -2.57579738 eV

  energy without entropy =       -2.57579738  energy(sigma->0) =       -2.57579738


--------------------------------------------------------------------------------------------------------




--------------------------------------- Iteration      1(  11)  ---------------------------------------


    TRIAL :  cpu time  178.3126: real time  181.0088
    CORREC:  cpu time   45.1097: real time   45.9164
    --------------------------------------------
      LOOP:  cpu time  223.4229: real time  226.9260

 eigenvalue-minimisations  :     0
 total energy-change (2. order) :-0.1401252E-06  (-0.2536158E-07)
 number of electron      28.0000001 magnetization      -0.0000580     -0.0000594     -0.0000590
 augmentation part       28.0000001 magnetization      -0.0000580     -0.0000594     -0.0000590

 Free energy of the ion-electron system (eV)
  ---------------------------------------------------
  alpha Z        PSCENC =         5.99831677
  Ewald energy   TEWEN  =      -983.58522533
  -Hartree energ DENC   =       -59.98562904
  -exchange      EXHF   =         0.00000000
  -V(xc)+E(xc)   XCENC  =      -303.85049003
  PAW double counting   =      1910.19755357    -1561.17602897
  entropy T*S    EENTRO =        -0.00000000
  eigenvalues    EBANDS =        18.38421324
  atomic energy  EATOM  =       971.44149227
  ---------------------------------------------------
  free energy    TOTEN  =        -2.57579752 eV

  energy without entropy =       -2.57579752  energy(sigma->0) =       -2.57579752


--------------------------------------------------------------------------------------------------------




--------------------------------------- Iteration      1(  12)  ---------------------------------------


    TRIAL :  cpu time  180.0950: real time  182.4174
    CORREC:  cpu time   45.9329: real time   47.4820
    EDDIAG:  cpu time   73.3727: real time   74.2740
    --------------------------------------------
      LOOP:  cpu time  299.4010: real time  304.1743

 eigenvalue-minimisations  :     0
 total energy-change (2. order) :-0.2536081E-07  (-0.6197639E-08)
 number of electron      28.0000001 magnetization      -0.0000580     -0.0000594     -0.0000590
 augmentation part       28.0000001 magnetization      -0.0000580     -0.0000594     -0.0000590

 Free energy of the ion-electron system (eV)
  ---------------------------------------------------
  alpha Z        PSCENC =         5.99831677
  Ewald energy   TEWEN  =      -983.58522533
  -Hartree energ DENC   =       -59.98562904
  -exchange      EXHF   =         0.00000000
  -V(xc)+E(xc)   XCENC  =      -303.85049003
  PAW double counting   =      1910.19755357    -1561.17602897
  entropy T*S    EENTRO =        -0.00000000
  eigenvalues    EBANDS =        18.38421321
  atomic energy  EATOM  =       971.44149227
  ---------------------------------------------------
  free energy    TOTEN  =        -2.57579754 eV

  energy without entropy =       -2.57579754  energy(sigma->0) =       -2.57579754


--------------------------------------------------------------------------------------------------------


  average scaling for gradient   1.3826


 average (electrostatic) potential at core
  the test charge radii are     1.4024  1.1897
  (the norm of the test charge is              1.0000)
       1 -61.7622       2 -61.7622       3 -88.6317       4 -88.8692       5 -88.8692



 E-fermi :   5.2789     XC(G=0):  -9.1625     alpha+bet :-10.3225


 k-point     1 :       0.2500    0.2500    0.2500
  band No.  band energies     occupation 
      1      -7.5950      1.00000
      2      -7.5950      1.00000
      3      -7.0906      1.00000
      4      -7.0906      1.00000
      5      -5.5496      1.00000
      6      -5.5496      1.00000
      7      -3.7472      1.00000
      8      -3.7472      1.00000
      9      -2.4703      1.00000
     10      -2.4703      1.00000
     11       2.5611      1.00000
     12       2.5611      1.00000
     13       3.1269      1.00000
     14       3.1269      1.00000
     15       3.5847      1.00000
     16       3.5847      1.00000
     17       3.8408      1.00000
     18       3.8408      1.00000
     19       4.0731      1.00000
     20       4.0731      1.00000
     21       4.2799      1.00000
     22       4.2799      1.00000
     23       4.3109      1.00000
     24       4.3109      1.00000
     25       4.7650      1.00000
     26       4.7651      1.00000
     27       5.1627      1.00000
     28       5.1627      1.00000
     29       5.5138      0.00000
     30       5.5138      0.00000
     31       6.2697      0.00000
     32       6.2697      0.00000
     33       6.5557      0.00000
     34       6.5557      0.00000
     35       6.8927      0.00000
     36       6.8927      0.00000
     37       7.8154      0.00000
     38       7.8154      0.00000
     39       8.0121      0.00000
     40       8.0122      0.00000
     41      10.3931      0.00000
     42      10.3931      0.00000
     43      11.0256      0.00000
     44      11.0256      0.00000
     45      11.1171      0.00000
     46      11.1171      0.00000
     47      11.2108      0.00000
     48      11.2108      0.00000
     49      12.2562      0.00000
     50      12.2562      0.00000
     51      12.2696      0.00000
     52      12.2696      0.00000
     53      12.4693      0.00000
     54      12.4694      0.00000
     55      12.6804      0.00000
     56      12.6804      0.00000
     57      12.9610      0.00000
     58      12.9610      0.00000
     59      13.0134      0.00000
     60      13.0134      0.00000
     61      13.2171      0.00000
     62      13.2172      0.00000
     63      14.1662      0.00000
     64      14.1662      0.00000
     65      14.1961      0.00000
     66      14.1961      0.00000
     67      14.6251      0.00000
     68      14.6252      0.00000
     69      15.1571      0.00000
     70      15.1571      0.00000
     71      15.2946      0.00000
     72      15.2946      0.00000
     73      15.4188      0.00000
     74      15.4189      0.00000
     75      17.0985      0.00000
     76      17.0985      0.00000
     77      17.1622      0.00000
     78      17.1622      0.00000
     79      17.5072      0.00000
     80      17.5072      0.00000
     81      18.3162      0.00000
     82      18.3162      0.00000
     83      18.6788      0.00000
     84      18.6788      0.00000
     85      19.1176      0.00000
     86      19.1178      0.00000
     87      19.9636      0.00000
     88      19.9842      0.00000

 k-point     2 :       0.1885    0.1885    0.1914
  band No.  band energies     occupation 
      1      -7.6173      1.00000
      2      -7.6173      1.00000
      3      -7.0387      1.00000
      4      -7.0387      1.00000
      5      -5.6272      1.00000
      6      -5.6272      1.00000
      7      -3.6142      1.00000
      8      -3.6141      1.00000
      9      -2.5679      1.00000
     10      -2.5679      1.00000
     11       2.6189      1.00000
     12       2.6189      1.00000
     13       3.0575      1.00000
     14       3.0575      1.00000
     15       3.6121      1.00000
     16       3.6121      1.00000
     17       3.8710      1.00000
     18       3.8710      1.00000
     19       4.0881      1.00000
     20       4.0881      1.00000
     21       4.2586      1.00000
     22       4.2586      1.00000
     23       4.2820      1.00000
     24       4.2820      1.00000
     25       4.8041      1.00000
     26       4.8041      1.00000
     27       5.1170      1.00000
     28       5.1170      1.00000
     29       5.5247      0.00000
     30       5.5247      0.00000
     31       6.3188      0.00000
     32       6.3188      0.00000
     33       6.4903      0.00000
     34       6.4903      0.00000
     35       6.8236      0.00000
     36       6.8237      0.00000
     37       7.8639      0.00000
     38       7.8639      0.00000
     39       8.0900      0.00000
     40       8.0900      0.00000
     41      10.4219      0.00000
     42      10.4220      0.00000
     43      10.9683      0.00000
     44      10.9683      0.00000
     45      11.1836      0.00000
     46      11.1836      0.00000
     47      11.2780      0.00000
     48      11.2780      0.00000
     49      12.0891      0.00000
     50      12.0891      0.00000
     51      12.1152      0.00000
     52      12.1152      0.00000
     53      12.2753      0.00000
     54      12.2753      0.00000
     55      12.8104      0.00000
     56      12.8104      0.00000
     57      12.8505      0.00000
     58      12.8505      0.00000
     59      12.8967      0.00000
     60      12.8968      0.00000
     61      13.3739      0.00000
     62      13.3740      0.00000
     63      14.3915      0.00000
     64      14.3915      0.00000
     65      14.4772      0.00000
     66      14.4772      0.00000
     67      14.6686      0.00000
     68      14.6687      0.00000
     69      15.0890      0.00000
     70      15.0891      0.00000
     71      15.5628      0.00000
     72      15.5628      0.00000
     73      15.6050      0.00000
     74      15.6050      0.00000
     75      16.7845      0.00000
     76      16.7845      0.00000
     77      16.8564      0.00000
     78      16.8564      0.00000
     79      17.3445      0.00000
     80      17.3445      0.00000
     81      17.9425      0.00000
     82      17.9425      0.00000
     83      18.2955      0.00000
     84      18.2955      0.00000
     85      19.4898      0.00000
     86      19.4905      0.00000
     87      19.7948      0.00000
     88      19.7999      0.00000

 k-point     3 :       0.2193    0.2193    0.2207
  band No.  band energies     occupation 
      1      -7.6068      1.00000
      2      -7.6067      1.00000
      3      -7.0641      1.00000
      4      -7.0640      1.00000
      5      -5.5894      1.00000
      6      -5.5894      1.00000
      7      -3.6811      1.00000
      8      -3.6811      1.00000
      9      -2.5177      1.00000
     10      -2.5177      1.00000
     11       2.5892      1.00000
     12       2.5892      1.00000
     13       3.0925      1.00000
     14       3.0926      1.00000
     15       3.5986      1.00000
     16       3.5986      1.00000
     17       3.8574      1.00000
     18       3.8574      1.00000
     19       4.0802      1.00000
     20       4.0802      1.00000
     21       4.2714      1.00000
     22       4.2714      1.00000
     23       4.2929      1.00000
     24       4.2929      1.00000
     25       4.7858      1.00000
     26       4.7858      1.00000
     27       5.1406      1.00000
     28       5.1406      1.00000
     29       5.5172      0.00000
     30       5.5172      0.00000
     31       6.2958      0.00000
     32       6.2958      0.00000
     33       6.5219      0.00000
     34       6.5219      0.00000
     35       6.8565      0.00000
     36       6.8565      0.00000
     37       7.8406      0.00000
     38       7.8406      0.00000
     39       8.0527      0.00000
     40       8.0527      0.00000
     41      10.4084      0.00000
     42      10.4084      0.00000
     43      10.9928      0.00000
     44      10.9928      0.00000
     45      11.1492      0.00000
     46      11.1492      0.00000
     47      11.2428      0.00000
     48      11.2428      0.00000
     49      12.1718      0.00000
     50      12.1718      0.00000
     51      12.1888      0.00000
     52      12.1889      0.00000
     53      12.3715      0.00000
     54      12.3715      0.00000
     55      12.7847      0.00000
     56      12.7847      0.00000
     57      12.8827      0.00000
     58      12.8827      0.00000
     59      12.9267      0.00000
     60      12.9268      0.00000
     61      13.2930      0.00000
     62      13.2930      0.00000
     63      14.2852      0.00000
     64      14.2852      0.00000
     65      14.3358      0.00000
     66      14.3358      0.00000
     67      14.6799      0.00000
     68      14.6799      0.00000
     69      15.1206      0.00000
     70      15.1206      0.00000
     71      15.4405      0.00000
     72      15.4405      0.00000
     73      15.4760      0.00000
     74      15.4760      0.00000
     75      16.9397      0.00000
     76      16.9397      0.00000
     77      17.0015      0.00000
     78      17.0015      0.00000
     79      17.4145      0.00000
     80      17.4145      0.00000
     81      18.1278      0.00000
     82      18.1278      0.00000
     83      18.4854      0.00000
     84      18.4854      0.00000
     85      19.3392      0.00000
     86      19.3393      0.00000
     87      19.8542      0.00000
     88      19.8577      0.00000

 k-point     4 :       0.2807    0.2807    0.2793
  band No.  band energies     occupation 
      1      -7.5821      1.00000
      2      -7.5821      1.00000
      3      -7.1175      1.00000
      4      -7.1175      1.00000
      5      -5.5089      1.00000
      6      -5.5089      1.00000
      7      -3.8111      1.00000
      8      -3.8110      1.00000
      9      -2.4265      1.00000
     10      -2.4265      1.00000
     11       2.5352      1.00000
     12       2.5352      1.00000
     13       3.1603      1.00000
     14       3.1603      1.00000
     15       3.5706      1.00000
     16       3.5706      1.00000
     17       3.8220      1.00000
     18       3.8220      1.00000
     19       4.0669      1.00000
     20       4.0669      1.00000
     21       4.2866      1.00000
     22       4.2866      1.00000
     23       4.3329      1.00000
     24       4.3330      1.00000
     25       4.7426      1.00000
     26       4.7426      1.00000
     27       5.1814      1.00000
     28       5.1815      1.00000
     29       5.5156      0.00000
     30       5.5156      0.00000
     31       6.2414      0.00000
     32       6.2414      0.00000
     33       6.5903      0.00000
     34       6.5903      0.00000
     35       6.9316      0.00000
     36       6.9316      0.00000
     37       7.7891      0.00000
     38       7.7891      0.00000
     39       7.9696      0.00000
     40       7.9696      0.00000
     41      10.3770      0.00000
     42      10.3771      0.00000
     43      11.0650      0.00000
     44      11.0651      0.00000
     45      11.0883      0.00000
     46      11.0883      0.00000
     47      11.1825      0.00000
     48      11.1825      0.00000
     49      12.3383      0.00000
     50      12.3383      0.00000
     51      12.3588      0.00000
     52      12.3588      0.00000
     53      12.5432      0.00000
     54      12.5432      0.00000
     55      12.6065      0.00000
     56      12.6065      0.00000
     57      13.0391      0.00000
     58      13.0391      0.00000
     59      13.1094      0.00000
     60      13.1094      0.00000
     61      13.1578      0.00000
     62      13.1578      0.00000
     63      14.0377      0.00000
     64      14.0377      0.00000
     65      14.0657      0.00000
     66      14.0657      0.00000
     67      14.5316      0.00000
     68      14.5317      0.00000
     69      15.0809      0.00000
     70      15.0809      0.00000
     71      15.1429      0.00000
     72      15.1429      0.00000
     73      15.5081      0.00000
     74      15.5082      0.00000
     75      17.2571      0.00000
     76      17.2571      0.00000
     77      17.3341      0.00000
     78      17.3341      0.00000
     79      17.6165      0.00000
     80      17.6165      0.00000
     81      18.5050      0.00000
     82      18.5050      0.00000
     83      18.8742      0.00000
     84      18.8742      0.00000
     85      18.8966      0.00000
     86      18.8966      0.00000
     87      20.0120      0.00000
     88      20.1104      0.00000

 k-point     5 :       0.3115    0.3115    0.3086
  band No.  band energies     occupation 
      1      -7.5684      1.00000
      2      -7.5684      1.00000
      3      -7.1442      1.00000
      4      -7.1442      1.00000
      5      -5.4685      1.00000
      6      -5.4685      1.00000
      7      -3.8715      1.00000
      8      -3.8715      1.00000
      9      -2.3871      1.00000
     10      -2.3871      1.00000
     11       2.5117      1.00000
     12       2.5117      1.00000
     13       3.1924      1.00000
     14       3.1924      1.00000
     15       3.5565      1.00000
     16       3.5565      1.00000
     17       3.8020      1.00000
     18       3.8020      1.00000
     19       4.0615      1.00000
     20       4.0615      1.00000
     21       4.2926      1.00000
     22       4.2927      1.00000
     23       4.3571      1.00000
     24       4.3571      1.00000
     25       4.7190      1.00000
     26       4.7190      1.00000
     27       5.1959      1.00000
     28       5.1959      1.00000
     29       5.5233      0.00000
     30       5.5233      0.00000
     31       6.2117      0.00000
     32       6.2117      0.00000
     33       6.6245      0.00000
     34       6.6245      0.00000
     35       6.9719      0.00000
     36       6.9719      0.00000
     37       7.7624      0.00000
     38       7.7625      0.00000
     39       7.9263      0.00000
     40       7.9263      0.00000
     41      10.3614      0.00000
     42      10.3614      0.00000
     43      11.0612      0.00000
     44      11.0612      0.00000
     45      11.1101      0.00000
     46      11.1101      0.00000
     47      11.1596      0.00000
     48      11.1596      0.00000
     49      12.4133      0.00000
     50      12.4134      0.00000
     51      12.4365      0.00000
     52      12.4366      0.00000
     53      12.5006      0.00000
     54      12.5007      0.00000
     55      12.6732      0.00000
     56      12.6732      0.00000
     57      13.0643      0.00000
     58      13.0643      0.00000
     59      13.1694      0.00000
     60      13.1694      0.00000
     61      13.2174      0.00000
     62      13.2175      0.00000
     63      13.9033      0.00000
     64      13.9033      0.00000
     65      13.9461      0.00000
     66      13.9461      0.00000
     67      14.4193      0.00000
     68      14.4193      0.00000
     69      14.9414      0.00000
     70      14.9414      0.00000
     71      14.9968      0.00000
     72      14.9968      0.00000
     73      15.6684      0.00000
     74      15.6684      0.00000
     75      17.4129      0.00000
     76      17.4130      0.00000
     77      17.5131      0.00000
     78      17.5131      0.00000
     79      17.7311      0.00000
     80      17.7311      0.00000
     81      18.6522      0.00000
     82      18.6522      0.00000
     83      18.7364      0.00000
     84      18.7365      0.00000
     85      19.0701      0.00000
     86      19.0704      0.00000
     87      19.8784      0.00000
     88      19.9290      0.00000

 k-point     6 :       0.2633    0.2367    0.2500
  band No.  band energies     occupation 
      1      -7.5905      1.00000
      2      -7.5905      1.00000
      3      -7.0864      1.00000
      4      -7.0864      1.00000
      5      -5.5471      1.00000
      6      -5.5471      1.00000
      7      -3.7485      1.00000
      8      -3.7485      1.00000
      9      -2.4780      1.00000
     10      -2.4780      1.00000
     11       2.5553      1.00000
     12       2.5553      1.00000
     13       3.0833      1.00000
     14       3.0833      1.00000
     15       3.5798      1.00000
     16       3.5798      1.00000
     17       3.8132      1.00000
     18       3.8132      1.00000
     19       4.0768      1.00000
     20       4.0768      1.00000
     21       4.1943      1.00000
     22       4.1943      1.00000
     23       4.4167      1.00000
     24       4.4167      1.00000
     25       4.7160      1.00000
     26       4.7160      1.00000
     27       5.1873      1.00000
     28       5.1873      1.00000
     29       5.5342      0.00000
     30       5.5342      0.00000
     31       6.2486      0.00000
     32       6.2486      0.00000
     33       6.5697      0.00000
     34       6.5697      0.00000
     35       6.9405      0.00000
     36       6.9405      0.00000
     37       7.8070      0.00000
     38       7.8070      0.00000
     39       8.0318      0.00000
     40       8.0318      0.00000
     41      10.3887      0.00000
     42      10.3887      0.00000
     43      10.9846      0.00000
     44      10.9846      0.00000
     45      11.1246      0.00000
     46      11.1246      0.00000
     47      11.2347      0.00000
     48      11.2347      0.00000
     49      12.1514      0.00000
     50      12.1514      0.00000
     51      12.3429      0.00000
     52      12.3429      0.00000
     53      12.4836      0.00000
     54      12.4836      0.00000
     55      12.6812      0.00000
     56      12.6813      0.00000
     57      12.9184      0.00000
     58      12.9184      0.00000
     59      13.1484      0.00000
     60      13.1484      0.00000
     61      13.2314      0.00000
     62      13.2315      0.00000
     63      14.0450      0.00000
     64      14.0450      0.00000
     65      14.3507      0.00000
     66      14.3507      0.00000
     67      14.5753      0.00000
     68      14.5753      0.00000
     69      15.0821      0.00000
     70      15.0822      0.00000
     71      15.3173      0.00000
     72      15.3173      0.00000
     73      15.5476      0.00000
     74      15.5476      0.00000
     75      16.9522      0.00000
     76      16.9523      0.00000
     77      17.2320      0.00000
     78      17.2321      0.00000
     79      17.6102      0.00000
     80      17.6102      0.00000
     81      18.2405      0.00000
     82      18.2406      0.00000
     83      18.7272      0.00000
     84      18.7273      0.00000
     85      19.1343      0.00000
     86      19.1344      0.00000
     87      20.0057      0.00000
     88      20.0933      0.00000

 k-point     7 :       0.2567    0.2433    0.2500
  band No.  band energies     occupation 
      1      -7.5938      1.00000
      2      -7.5938      1.00000
      3      -7.0895      1.00000
      4      -7.0895      1.00000
      5      -5.5489      1.00000
      6      -5.5489      1.00000
      7      -3.7475      1.00000
      8      -3.7475      1.00000
      9      -2.4722      1.00000
     10      -2.4722      1.00000
     11       2.5596      1.00000
     12       2.5597      1.00000
     13       3.1157      1.00000
     14       3.1157      1.00000
     15       3.5836      1.00000
     16       3.5836      1.00000
     17       3.8339      1.00000
     18       3.8339      1.00000
     19       4.0742      1.00000
     20       4.0742      1.00000
     21       4.2402      1.00000
     22       4.2402      1.00000
     23       4.3558      1.00000
     24       4.3558      1.00000
     25       4.7509      1.00000
     26       4.7509      1.00000
     27       5.1714      1.00000
     28       5.1714      1.00000
     29       5.5180      0.00000
     30       5.5180      0.00000
     31       6.2639      0.00000
     32       6.2639      0.00000
     33       6.5593      0.00000
     34       6.5593      0.00000
     35       6.9052      0.00000
     36       6.9052      0.00000
     37       7.8129      0.00000
     38       7.8129      0.00000
     39       8.0174      0.00000
     40       8.0174      0.00000
     41      10.3920      0.00000
     42      10.3920      0.00000
     43      11.0139      0.00000
     44      11.0140      0.00000
     45      11.1198      0.00000
     46      11.1198      0.00000
     47      11.2174      0.00000
     48      11.2174      0.00000
     49      12.2050      0.00000
     50      12.2050      0.00000
     51      12.3163      0.00000
     52      12.3163      0.00000
     53      12.4689      0.00000
     54      12.4690      0.00000
     55      12.6793      0.00000
     56      12.6793      0.00000
     57      12.9370      0.00000
     58      12.9370      0.00000
     59      13.0653      0.00000
     60      13.0654      0.00000
     61      13.2176      0.00000
     62      13.2177      0.00000
     63      14.1059      0.00000
     64      14.1059      0.00000
     65      14.2658      0.00000
     66      14.2658      0.00000
     67      14.6115      0.00000
     68      14.6115      0.00000
     69      15.1293      0.00000
     70      15.1293      0.00000
     71      15.3028      0.00000
     72      15.3028      0.00000
     73      15.4579      0.00000
     74      15.4580      0.00000
     75      17.0406      0.00000
     76      17.0406      0.00000
     77      17.1987      0.00000
     78      17.1987      0.00000
     79      17.5353      0.00000
     80      17.5353      0.00000
     81      18.2947      0.00000
     82      18.2947      0.00000
     83      18.6931      0.00000
     84      18.6932      0.00000
     85      19.1218      0.00000
     86      19.1221      0.00000
     87      19.9808      0.00000
     88      20.0068      0.00000

 k-point     8 :       0.2433    0.2567    0.2500
  band No.  band energies     occupation 
      1      -7.5938      1.00000
      2      -7.5938      1.00000
      3      -7.0895      1.00000
      4      -7.0895      1.00000
      5      -5.5489      1.00000
      6      -5.5489      1.00000
      7      -3.7475      1.00000
      8      -3.7475      1.00000
      9      -2.4722      1.00000
     10      -2.4722      1.00000
     11       2.5596      1.00000
     12       2.5597      1.00000
     13       3.1157      1.00000
     14       3.1157      1.00000
     15       3.5836      1.00000
     16       3.5836      1.00000
     17       3.8339      1.00000
     18       3.8339      1.00000
     19       4.0742      1.00000
     20       4.0742      1.00000
     21       4.2402      1.00000
     22       4.2402      1.00000
     23       4.3558      1.00000
     24       4.3558      1.00000
     25       4.7509      1.00000
     26       4.7509      1.00000
     27       5.1714      1.00000
     28       5.1714      1.00000
     29       5.5180      0.00000
     30       5.5180      0.00000
     31       6.2639      0.00000
     32       6.2639      0.00000
     33       6.5593      0.00000
     34       6.5593      0.00000
     35       6.9052      0.00000
     36       6.9052      0.00000
     37       7.8129      0.00000
     38       7.8129      0.00000
     39       8.0174      0.00000
     40       8.0174      0.00000
     41      10.3920      0.00000
     42      10.3920      0.00000
     43      11.0139      0.00000
     44      11.0140      0.00000
     45      11.1198      0.00000
     46      11.1198      0.00000
     47      11.2174      0.00000
     48      11.2174      0.00000
     49      12.2050      0.00000
     50      12.2050      0.00000
     51      12.3163      0.00000
     52      12.3163      0.00000
     53      12.4689      0.00000
     54      12.4690      0.00000
     55      12.6793      0.00000
     56      12.6793      0.00000
     57      12.9370      0.00000
     58      12.9370      0.00000
     59      13.0653      0.00000
     60      13.0654      0.00000
     61      13.2176      0.00000
     62      13.2177      0.00000
     63      14.1059      0.00000
     64      14.1059      0.00000
     65      14.2658      0.00000
     66      14.2658      0.00000
     67      14.6115      0.00000
     68      14.6115      0.00000
     69      15.1293      0.00000
     70      15.1293      0.00000
     71      15.3028      0.00000
     72      15.3028      0.00000
     73      15.4579      0.00000
     74      15.4580      0.00000
     75      17.0406      0.00000
     76      17.0406      0.00000
     77      17.1987      0.00000
     78      17.1987      0.00000
     79      17.5353      0.00000
     80      17.5353      0.00000
     81      18.2947      0.00000
     82      18.2947      0.00000
     83      18.6931      0.00000
     84      18.6931      0.00000
     85      19.1218      0.00000
     86      19.1219      0.00000
     87      19.9877      0.00000
     88      20.0131      0.00000

 k-point     9 :       0.2367    0.2633    0.2500
  band No.  band energies     occupation 
      1      -7.5905      1.00000
      2      -7.5905      1.00000
      3      -7.0864      1.00000
      4      -7.0864      1.00000
      5      -5.5471      1.00000
      6      -5.5471      1.00000
      7      -3.7485      1.00000
      8      -3.7485      1.00000
      9      -2.4780      1.00000
     10      -2.4780      1.00000
     11       2.5553      1.00000
     12       2.5553      1.00000
     13       3.0833      1.00000
     14       3.0833      1.00000
     15       3.5798      1.00000
     16       3.5798      1.00000
     17       3.8132      1.00000
     18       3.8132      1.00000
     19       4.0768      1.00000
     20       4.0768      1.00000
     21       4.1943      1.00000
     22       4.1943      1.00000
     23       4.4167      1.00000
     24       4.4167      1.00000
     25       4.7160      1.00000
     26       4.7160      1.00000
     27       5.1873      1.00000
     28       5.1873      1.00000
     29       5.5342      0.00000
     30       5.5342      0.00000
     31       6.2486      0.00000
     32       6.2486      0.00000
     33       6.5696      0.00000
     34       6.5697      0.00000
     35       6.9405      0.00000
     36       6.9405      0.00000
     37       7.8070      0.00000
     38       7.8070      0.00000
     39       8.0318      0.00000
     40       8.0318      0.00000
     41      10.3887      0.00000
     42      10.3887      0.00000
     43      10.9846      0.00000
     44      10.9846      0.00000
     45      11.1246      0.00000
     46      11.1246      0.00000
     47      11.2347      0.00000
     48      11.2347      0.00000
     49      12.1514      0.00000
     50      12.1514      0.00000
     51      12.3429      0.00000
     52      12.3429      0.00000
     53      12.4836      0.00000
     54      12.4837      0.00000
     55      12.6812      0.00000
     56      12.6813      0.00000
     57      12.9184      0.00000
     58      12.9184      0.00000
     59      13.1484      0.00000
     60      13.1484      0.00000
     61      13.2314      0.00000
     62      13.2315      0.00000
     63      14.0450      0.00000
     64      14.0450      0.00000
     65      14.3507      0.00000
     66      14.3507      0.00000
     67      14.5753      0.00000
     68      14.5753      0.00000
     69      15.0821      0.00000
     70      15.0822      0.00000
     71      15.3173      0.00000
     72      15.3173      0.00000
     73      15.5476      0.00000
     74      15.5476      0.00000
     75      16.9522      0.00000
     76      16.9523      0.00000
     77      17.2320      0.00000
     78      17.2321      0.00000
     79      17.6102      0.00000
     80      17.6102      0.00000
     81      18.2405      0.00000
     82      18.2406      0.00000
     83      18.7272      0.00000
     84      18.7273      0.00000
     85      19.1343      0.00000
     86      19.1344      0.00000
     87      20.0003      0.00000
     88      20.0834      0.00000

 k-point    10 :       0.2500    0.2500    0.2271
  band No.  band energies     occupation 
      1      -7.5936      1.00000
      2      -7.5936      1.00000
      3      -7.0797      1.00000
      4      -7.0797      1.00000
      5      -5.5573      1.00000
      6      -5.5573      1.00000
      7      -3.7320      1.00000
      8      -3.7319      1.00000
      9      -2.4896      1.00000
     10      -2.4896      1.00000
     11       2.5623      1.00000
     12       2.5623      1.00000
     13       3.0789      1.00000
     14       3.0789      1.00000
     15       3.5814      1.00000
     16       3.5814      1.00000
     17       3.8120      1.00000
     18       3.8120      1.00000
     19       4.0785      1.00000
     20       4.0785      1.00000
     21       4.1870      1.00000
     22       4.1871      1.00000
     23       4.4166      1.00000
     24       4.4166      1.00000
     25       4.7271      1.00000
     26       4.7271      1.00000
     27       5.1942      1.00000
     28       5.1942      1.00000
     29       5.5217      0.00000
     30       5.5217      0.00000
     31       6.2562      0.00000
     32       6.2562      0.00000
     33       6.5508      0.00000
     34       6.5508      0.00000
     35       6.9389      0.00000
     36       6.9389      0.00000
     37       7.8141      0.00000
     38       7.8141      0.00000
     39       8.0423      0.00000
     40       8.0424      0.00000
     41      10.3938      0.00000
     42      10.3938      0.00000
     43      10.9799      0.00000
     44      10.9799      0.00000
     45      11.1254      0.00000
     46      11.1255      0.00000
     47      11.2427      0.00000
     48      11.2427      0.00000
     49      12.1310      0.00000
     50      12.1310      0.00000
     51      12.3368      0.00000
     52      12.3368      0.00000
     53      12.4517      0.00000
     54      12.4517      0.00000
     55      12.7103      0.00000
     56      12.7103      0.00000
     57      12.8631      0.00000
     58      12.8631      0.00000
     59      13.1534      0.00000
[...]
  0.000   0.000   0.000   0.000   9.920   0.000   0.000   0.000  -0.000  -0.519   8.424   0.000   0.000   0.000  -0.000  -0.432
  0.006   0.000   0.007   0.000   0.000   0.000   9.920   0.000  -0.000   0.000   0.000   0.000   8.424   0.000  -0.000   0.000
  0.048   0.000   0.055   0.000  -0.000   0.519  -0.000   0.000   9.919   0.000  -0.000   0.432  -0.000   0.000   8.423   0.000
  0.000   0.000   0.000   0.000   8.424   0.000   0.000   0.000  -0.000  -0.432   7.226   0.000   0.000   0.000   0.000  -0.359
  0.005   0.000   0.006   0.000   0.000   0.000   8.424   0.000  -0.000   0.000   0.000   0.000   7.226   0.000  -0.000   0.000
  0.041   0.000   0.046   0.000  -0.000   0.432  -0.000   0.000   8.423   0.000   0.000   0.359  -0.000   0.000   7.225   0.000
 -0.000   0.000  -0.000   0.000   0.009   0.000  -0.000   0.000  -0.000   0.000   0.008   0.000  -0.000   0.000  -0.000   0.000
  0.000   0.000   0.000   0.000   0.000   0.000   0.000   0.000  -0.000   0.000  -0.000   0.000   0.000   0.000  -0.000   0.000
  0.000   0.000   0.000   0.000   0.000   0.000   0.002   0.000  -0.006   0.000   0.000   0.000   0.002   0.000  -0.005   0.000
 -0.000   0.000  -0.000   0.000  -0.000   0.000   0.009   0.000   0.001   0.000  -0.000   0.000   0.008   0.000   0.001   0.000
 -0.001   0.000  -0.001   0.000   0.000   0.000   0.001   0.000   0.010   0.000   0.000   0.000   0.001   0.000   0.009   0.000
 total augmentation occupancy for first ion, spin component:           1
  2.000   0.000   0.000   0.000   0.000   0.000   0.000   0.000   0.000   0.000   0.000   0.000   0.000
  0.000   0.000   0.000   0.000   0.000   0.000   0.000   0.000   0.000   0.000   0.000   0.000   0.000
  0.000   0.000   1.000   0.000   0.000   0.000   0.000   0.000   0.000   0.000   0.000   0.000   0.000
  0.000   0.000   0.000   1.000   0.000   0.000   0.000   0.000   0.000   0.000   0.000   0.000   0.000
  0.000   0.000   0.000   0.000   1.000   0.000   0.000   0.000   0.000   0.000   0.000   0.000   0.000
  0.000   0.000   0.000   0.000   0.000   0.000   0.000   0.000   0.000   0.000   0.000   0.000   0.000
  0.000   0.000   0.000   0.000   0.000   0.000   0.000   0.000   0.000   0.000   0.000   0.000   0.000
  0.000   0.000   0.000   0.000   0.000   0.000   0.000   0.000   0.000   0.000   0.000   0.000   0.000
  0.000   0.000   0.000   0.000   0.000   0.000   0.000   0.000   0.000   0.000   0.000   0.000   0.000
  0.000   0.000   0.000   0.000   0.000   0.000   0.000   0.000   0.000   0.000   0.000   0.000   0.000
  0.000   0.000   0.000   0.000   0.000   0.000   0.000   0.000   0.000   0.000   0.000   0.000   0.000
  0.000   0.000   0.000   0.000   0.000   0.000   0.000   0.000   0.000   0.000   0.000   0.000   0.000
  0.000   0.000   0.000   0.000   0.000   0.000   0.000   0.000   0.000   0.000   0.000   0.000   0.000
 total augmentation occupancy for first ion, spin component:           2
  0.400   0.000   0.000   0.000   0.000   0.000   0.000   0.000   0.000   0.000   0.000   0.000   0.000
  0.000   0.000   0.000   0.000   0.000   0.000   0.000   0.000   0.000   0.000   0.000   0.000   0.000
  0.000   0.000   0.200   0.000   0.000   0.000   0.000   0.000   0.000   0.000   0.000   0.000   0.000
  0.000   0.000   0.000   0.200   0.000   0.000   0.000   0.000   0.000   0.000   0.000   0.000   0.000
  0.000   0.000   0.000   0.000   0.200   0.000   0.000   0.000   0.000   0.000   0.000   0.000   0.000
  0.000   0.000   0.000   0.000   0.000   0.000   0.000   0.000   0.000   0.000   0.000   0.000   0.000
  0.000   0.000   0.000   0.000   0.000   0.000   0.000   0.000   0.000   0.000   0.000   0.000   0.000
  0.000   0.000   0.000   0.000   0.000   0.000   0.000   0.000   0.000   0.000   0.000   0.000   0.000
  0.000   0.000   0.000   0.000   0.000   0.000   0.000   0.000   0.000   0.000   0.000   0.000   0.000
  0.000   0.000   0.000   0.000   0.000   0.000   0.000   0.000   0.000   0.000   0.000   0.000   0.000
  0.000   0.000   0.000   0.000   0.000   0.000   0.000   0.000   0.000   0.000   0.000   0.000   0.000
  0.000   0.000   0.000   0.000   0.000   0.000   0.000   0.000   0.000   0.000   0.000   0.000   0.000
  0.000   0.000   0.000   0.000   0.000   0.000   0.000   0.000   0.000   0.000   0.000   0.000   0.000
 total augmentation occupancy for first ion, spin component:           3
  0.400   0.000   0.000   0.000   0.000   0.000   0.000   0.000   0.000   0.000   0.000   0.000   0.000
  0.000   0.000   0.000   0.000   0.000   0.000   0.000   0.000   0.000   0.000   0.000   0.000   0.000
  0.000   0.000   0.200   0.000   0.000   0.000   0.000   0.000   0.000   0.000   0.000   0.000   0.000
  0.000   0.000   0.000   0.200   0.000   0.000   0.000   0.000   0.000   0.000   0.000   0.000   0.000
  0.000   0.000   0.000   0.000   0.200   0.000   0.000   0.000   0.000   0.000   0.000   0.000   0.000
  0.000   0.000   0.000   0.000   0.000   0.000   0.000   0.000   0.000   0.000   0.000   0.000   0.000
  0.000   0.000   0.000   0.000   0.000   0.000   0.000   0.000   0.000   0.000   0.000   0.000   0.000
  0.000   0.000   0.000   0.000   0.000   0.000   0.000   0.000   0.000   0.000   0.000   0.000   0.000
  0.000   0.000   0.000   0.000   0.000   0.000   0.000   0.000   0.000   0.000   0.000   0.000   0.000
  0.000   0.000   0.000   0.000   0.000   0.000   0.000   0.000   0.000   0.000   0.000   0.000   0.000
  0.000   0.000   0.000   0.000   0.000   0.000   0.000   0.000   0.000   0.000   0.000   0.000   0.000
  0.000   0.000   0.000   0.000   0.000   0.000   0.000   0.000   0.000   0.000   0.000   0.000   0.000
  0.000   0.000   0.000   0.000   0.000   0.000   0.000   0.000   0.000   0.000   0.000   0.000   0.000
 total augmentation occupancy for first ion, spin component:           4
  0.400   0.000   0.000   0.000   0.000   0.000   0.000   0.000   0.000   0.000   0.000   0.000   0.000
  0.000   0.000   0.000   0.000   0.000   0.000   0.000   0.000   0.000   0.000   0.000   0.000   0.000
  0.000   0.000   0.200   0.000   0.000   0.000   0.000   0.000   0.000   0.000   0.000   0.000   0.000
  0.000   0.000   0.000   0.200   0.000   0.000   0.000   0.000   0.000   0.000   0.000   0.000   0.000
  0.000   0.000   0.000   0.000   0.200   0.000   0.000   0.000   0.000   0.000   0.000   0.000   0.000
  0.000   0.000   0.000   0.000   0.000   0.000   0.000   0.000   0.000   0.000   0.000   0.000   0.000
  0.000   0.000   0.000   0.000   0.000   0.000   0.000   0.000   0.000   0.000   0.000   0.000   0.000
  0.000   0.000   0.000   0.000   0.000   0.000   0.000   0.000   0.000   0.000   0.000   0.000   0.000
  0.000   0.000   0.000   0.000   0.000   0.000   0.000   0.000   0.000   0.000   0.000   0.000   0.000
  0.000   0.000   0.000   0.000   0.000   0.000   0.000   0.000   0.000   0.000   0.000   0.000   0.000
  0.000   0.000   0.000   0.000   0.000   0.000   0.000   0.000   0.000   0.000   0.000   0.000   0.000
  0.000   0.000   0.000   0.000   0.000   0.000   0.000   0.000   0.000   0.000   0.000   0.000   0.000
  0.000   0.000   0.000   0.000   0.000   0.000   0.000   0.000   0.000   0.000   0.000   0.000   0.000


------------------------ aborting loop because EDIFF is reached ----------------------------------------


    CHARGE:  cpu time   24.3640: real time   24.7937
    FORLOC:  cpu time    0.0982: real time    0.0985
    FORNL :  cpu time   49.7403: real time   51.0109
    STRESS:  cpu time  140.9967: real time  144.3356
    FORCOR:  cpu time    3.9006: real time    3.9166
    FORHAR:  cpu time    0.3498: real time    0.3502
    OFIELD:  cpu time    0.0273: real time    0.0273

 ---------------------------------------------------------------------------------------------

         DFTD3 V3.0 Rev 1        
 IVDW         = 11
 DF pbe       
 parameters
 VDW_S6       =    1.0000
 VDW_S8       =    0.7220
 VDW_SR       =    1.2170
 rs18     =    1.0000
 alpha6   =   14.0000
 alpha8   =   16.0000
 k1-k3    =   16.0000    1.3333   -4.0000
 VDW_RADIUS   =   50.2022 A
 VDW_CNRADIUS =   21.1671 A
 Edisp (eV)   -1.44006

 E6    (eV) :    -0.5341
 E8    (eV) :    -0.9060
 % E8        : 62.91
    FORVDW:  cpu time    0.0676: real time    0.0865

  FORCE on cell =-STRESS in cart. coord.  units (eV):
  Direction    XX          YY          ZZ          XY          YZ          ZX
  --------------------------------------------------------------------------------------
  Alpha Z     5.99832     5.99832     5.99832
  Ewald    -328.18772  -327.69505  -327.70289     0.00000     0.00000    -0.06217
  Hartree    21.74037    26.62131    26.54321     0.00000    -0.00000    -0.61564
  E(xc)    -116.09613  -117.56447  -117.54139    -0.00000     0.00000     0.18517
  Local    -158.98894  -190.84324  -190.33948    -0.00000     0.00000     4.01773
  n-local   495.48171   516.70240   516.36774     0.00000    -0.00000    -2.67670
  augment  -134.80727  -141.50430  -141.39876     0.00000    -0.00000     0.84499
  Kinetic   226.29096   279.14158   278.30408     0.00000     0.00000    -6.67087
  Fock        0.00000     0.00000     0.00000     0.00000     0.00000     0.00000
  vdW        -1.55260    -1.18955    -1.19533     0.00000    -0.00000    -0.04581
  -------------------------------------------------------------------------------------
  Total       9.87869    49.66700    49.03550    -0.00000     0.00000    -5.02331
  in kB      91.68474   460.96248   455.10153    -0.00001     0.00000   -46.62165
  external pressure =      335.92 kB  Pullay stress =        0.00 kB


 VOLUME and BASIS-vectors are now :
 -----------------------------------------------------------------------------
  energy-cutoff  :      600.00
  volume of cell :      172.63
      direct lattice vectors                 reciprocal lattice vectors
    10.222282710 -2.216677340  0.000000000     0.048912754 -0.225562824 -0.125089241
    10.222282710  2.216677340  0.000000000     0.048912754  0.225562824 -0.125089241
     9.741601570  0.000000000  3.809189020    -0.000000000  0.000000000  0.262523071

  length of vectors
    10.459862439 10.459862439 10.459862434     0.262523071  0.262523071  0.262523071


 FORCES acting on ions
    electron-ion (+dipol)            ewald-force                    non-local-force                 convergence-correction
 -----------------------------------------------------------------------------------------------
   0.133E+01 0.229E-06 0.167E+00   0.388E+01 0.647E-14 0.490E+00   -.430E+01 -.610E-06 -.542E+00   -.391E+00 -.947E-07 -.493E-01
   -.133E+01 -.345E-07 -.167E+00   -.388E+01 -.689E-14 -.490E+00   0.430E+01 -.650E-06 0.542E+00   0.391E+00 0.144E-06 0.493E-01
   -.934E-06 -.107E-04 0.126E-04   -.568E-13 -.288E-14 -.355E-14   0.128E-05 0.111E-04 -.129E-04   -.365E-07 0.469E-06 -.539E-06
   0.389E+02 -.478E-05 0.490E+01   -.256E+02 0.394E-14 -.323E+01   -.961E+01 0.513E-05 -.121E+01   -.327E+01 0.163E-06 -.412E+00
   -.389E+02 -.448E-05 -.490E+01   0.256E+02 -.408E-14 0.323E+01   0.961E+01 0.423E-05 0.121E+01   0.327E+01 0.250E-06 0.412E+00
 -----------------------------------------------------------------------------------------------
   -.331E-05 -.198E-04 0.246E-04   -.142E-13 -.345E-14 -.444E-15   0.322E-05 0.192E-04 -.233E-04   0.147E-06 0.930E-06 -.123E-05


 POSITION                                       TOTAL-FORCE (eV/Angst)
 -----------------------------------------------------------------------------------
     12.06838      0.00000      1.52291         0.543641     -0.000001      0.068596
     18.11779      0.00000      2.28628        -0.543642     -0.000001     -0.068595
      0.00000      0.00000      0.00000         0.000000      0.000001     -0.000001
      6.35376      0.00000      0.80178         0.375209      0.000000      0.047629
     23.83241      0.00000      3.00741        -0.375208     -0.000000     -0.047629
 -----------------------------------------------------------------------------------
    total drift:                                0.000000      0.000000     -0.000000


--------------------------------------------------------------------------------------------------------



  FREE ENERGIE OF THE ION-ELECTRON SYSTEM (eV)
  ---------------------------------------------------
  free  energy   TOTEN  =        -4.01585675 eV

  energy  without entropy=       -4.01585675  energy(sigma->0) =       -4.01585675



--------------------------------------------------------------------------------------------------------


    POTLOK:  cpu time   11.2009: real time   11.2420


--------------------------------------------------------------------------------------------------------


     LOOP+:  cpu time 3251.9018: real time 3317.5423
    4ORBIT:  cpu time    0.0000: real time    0.0000

 Spin-Orbit-Coupling matrix elements

 Ion:    1  E_soc:     -1.6183399
 l=   1
     0.0000000    -0.2328886    -0.2850462
    -0.2328886     0.0000000    -0.2858689
    -0.2850462    -0.2858689     0.0000000
 l=   2
     0.0000000    -0.0003806     0.0000000    -0.0001892    -0.0008696
    -0.0003806     0.0000000    -0.0017850    -0.0004779    -0.0007187
     0.0000000    -0.0017850     0.0000000    -0.0007898     0.0000000
    -0.0001892    -0.0004779    -0.0007898     0.0000000    -0.0001555
    -0.0008696    -0.0007187     0.0000000    -0.0001555     0.0000000
 l=   3
     0.0000000     0.0000000     0.0000000     0.0000000     0.0000000     0.0000000     0.0000000
     0.0000000     0.0000000     0.0000000     0.0000000     0.0000000     0.0000000     0.0000000
     0.0000000     0.0000000     0.0000000     0.0000000     0.0000000     0.0000000     0.0000000
     0.0000000     0.0000000     0.0000000     0.0000000     0.0000000     0.0000000     0.0000000
     0.0000000     0.0000000     0.0000000     0.0000000     0.0000000     0.0000000     0.0000000
     0.0000000     0.0000000     0.0000000     0.0000000     0.0000000     0.0000000     0.0000000
     0.0000000     0.0000000     0.0000000     0.0000000     0.0000000     0.0000000     0.0000000

 Ion:    2  E_soc:     -1.6183399
 l=   1
     0.0000000    -0.2328886    -0.2850462
    -0.2328886     0.0000000    -0.2858689
    -0.2850462    -0.2858689     0.0000000
 l=   2
     0.0000000    -0.0003806     0.0000000    -0.0001892    -0.0008696
    -0.0003806     0.0000000    -0.0017850    -0.0004779    -0.0007187
     0.0000000    -0.0017850     0.0000000    -0.0007898     0.0000000
    -0.0001892    -0.0004779    -0.0007898     0.0000000    -0.0001555
    -0.0008696    -0.0007187     0.0000000    -0.0001555     0.0000000
 l=   3
     0.0000000     0.0000000     0.0000000     0.0000000     0.0000000     0.0000000     0.0000000
     0.0000000     0.0000000     0.0000000     0.0000000     0.0000000     0.0000000     0.0000000
     0.0000000     0.0000000     0.0000000     0.0000000     0.0000000     0.0000000     0.0000000
     0.0000000     0.0000000     0.0000000     0.0000000     0.0000000     0.0000000     0.0000000
     0.0000000     0.0000000     0.0000000     0.0000000     0.0000000     0.0000000     0.0000000
     0.0000000     0.0000000     0.0000000     0.0000000     0.0000000     0.0000000     0.0000000
     0.0000000     0.0000000     0.0000000     0.0000000     0.0000000     0.0000000     0.0000000

 Ion:    3  E_soc:     -0.0838174
 l=   1
     0.0000000    -0.0156234    -0.0136225
    -0.0156234     0.0000000    -0.0135838
    -0.0136225    -0.0135838     0.0000000
 l=   2
     0.0000000    -0.0000052     0.0000000    -0.0001623     0.0003380
    -0.0000052     0.0000000     0.0001169     0.0000792     0.0001266
     0.0000000     0.0001169     0.0000000     0.0001592     0.0000000
    -0.0001623     0.0000792     0.0001592     0.0000000     0.0002686
     0.0003380     0.0001266     0.0000000     0.0002686     0.0000000
 l=   3
     0.0000000     0.0000000     0.0000000     0.0000000     0.0000000     0.0000000     0.0000000
     0.0000000     0.0000000     0.0000000     0.0000000     0.0000000     0.0000000     0.0000000
     0.0000000     0.0000000     0.0000000     0.0000000     0.0000000     0.0000000     0.0000000
     0.0000000     0.0000000     0.0000000     0.0000000     0.0000000     0.0000000     0.0000000
     0.0000000     0.0000000     0.0000000     0.0000000     0.0000000     0.0000000     0.0000000
     0.0000000     0.0000000     0.0000000     0.0000000     0.0000000     0.0000000     0.0000000
     0.0000000     0.0000000     0.0000000     0.0000000     0.0000000     0.0000000     0.0000000

 Ion:    4  E_soc:     -0.2014027
 l=   1
     0.0000000    -0.0245058    -0.0381453
    -0.0245058     0.0000000    -0.0383550
    -0.0381453    -0.0383550     0.0000000
 l=   2
     0.0000000    -0.0000098     0.0000000    -0.0000208     0.0000596
    -0.0000098     0.0000000     0.0000842     0.0000304     0.0000621
     0.0000000     0.0000842     0.0000000     0.0000092     0.0000000
    -0.0000208     0.0000304     0.0000092     0.0000000     0.0000899
     0.0000596     0.0000621     0.0000000     0.0000899     0.0000000
 l=   3
     0.0000000     0.0000000     0.0000000     0.0000000     0.0000000     0.0000000     0.0000000
     0.0000000     0.0000000     0.0000000     0.0000000     0.0000000     0.0000000     0.0000000
     0.0000000     0.0000000     0.0000000     0.0000000     0.0000000     0.0000000     0.0000000
     0.0000000     0.0000000     0.0000000     0.0000000     0.0000000     0.0000000     0.0000000
     0.0000000     0.0000000     0.0000000     0.0000000     0.0000000     0.0000000     0.0000000
     0.0000000     0.0000000     0.0000000     0.0000000     0.0000000     0.0000000     0.0000000
     0.0000000     0.0000000     0.0000000     0.0000000     0.0000000     0.0000000     0.0000000

 Ion:    5  E_soc:     -0.2014027
 l=   1
     0.0000000    -0.0245058    -0.0381454
    -0.0245058     0.0000000    -0.0383549
    -0.0381454    -0.0383549     0.0000000
 l=   2
     0.0000000    -0.0000098     0.0000000    -0.0000208     0.0000596
    -0.0000098     0.0000000     0.0000842     0.0000304     0.0000621
     0.0000000     0.0000842     0.0000000     0.0000092     0.0000000
    -0.0000208     0.0000304     0.0000092     0.0000000     0.0000899
     0.0000596     0.0000621     0.0000000     0.0000899     0.0000000
 l=   3
     0.0000000     0.0000000     0.0000000     0.0000000     0.0000000     0.0000000     0.0000000
     0.0000000     0.0000000     0.0000000     0.0000000     0.0000000     0.0000000     0.0000000
     0.0000000     0.0000000     0.0000000     0.0000000     0.0000000     0.0000000     0.0000000
     0.0000000     0.0000000     0.0000000     0.0000000     0.0000000     0.0000000     0.0000000
     0.0000000     0.0000000     0.0000000     0.0000000     0.0000000     0.0000000     0.0000000
     0.0000000     0.0000000     0.0000000     0.0000000     0.0000000     0.0000000     0.0000000
     0.0000000     0.0000000     0.0000000     0.0000000     0.0000000     0.0000000     0.0000000

 total amount of memory used by VASP MPI-rank0   806603. kBytes
=======================================================================

   base      :      30000. kBytes
   nonl-proj :      36873. kBytes
   fftplans  :     182231. kBytes
   grid      :     180182. kBytes
   one-center:         97. kBytes
   wavefun   :     377220. kBytes

  
  
 General timing and accounting informations for this job:
 ========================================================
  
                  Total CPU time used (sec):     3291.011
                            User time (sec):     3247.209
                          System time (sec):       43.803
                         Elapsed time (sec):     3357.954
  
                   Maximum memory used (kb):     1147448.
                   Average memory used (kb):           0.
  
                          Minor page faults:      5409393
                          Major page faults:            0
                 Voluntary context switches:         5225
