<?xml version="1.0" encoding="ISO-8859-1"?>
<modeling>
 <generator>
  <i name="program" type="string">vasp </i>
  <i name="version" type="string">5.4.4.18Apr17-6-g9f103f2a35  </i>
  <i name="subversion" type="string">(build Mar 20 2018 18:07:30) complex            parallel </i>
  <i name="platform" type="string">LinuxGNU </i>
  <i name="date" type="string">2020 07 04 </i>
  <i name="time" type="string">07:48:04 </i>
 </generator>
 <incar>
  <i type="string" name="SYSTEM"> BiTe</i>
  <i type="int" name="ISTART">     1</i>
  <i type="string" name="PREC">accurate</i>
  <i type="string" name="ALGO"> A</i>
  <i type="logical" name="ADDGRID"> T  </i>
  <i type="logical" name="LSORBIT"> T  </i>
  <i type="int" name="ISPIN">     1</i>
  <i type="int" name="ICHARG">    11</i>
  <i type="int" name="IBRION">    -1</i>
  <i name="EDIFF">      0.00000010</i>
  <i name="EDIFFG">     -0.00100000</i>
  <i type="int" name="NSW">     0</i>
  <i type="int" name="ISYM">    -1</i>
  <i name="ENCUT">    600.00000000</i>
  <i type="int" name="NBANDS">    88</i>
  <i type="logical" name="LREAL"> F  </i>
  <i type="logical" name="LPLANE"> T  </i>
  <i type="int" name="ISMEAR">     0</i>
  <i name="SIGMA">      0.01000000</i>
  <i type="int" name="LMAXMIX">     4</i>
  <i type="logical" name="LWAVE"> F  </i>
  <i type="logical" name="LCHARG"> F  </i>
  <i type="logical" name="GGA_COMPAT"> F  </i>
  <v type="int" name="KPOINT_BSE">    -1     0     0     0</v>
 </incar>
 <structure name="primitive_cell" >
  <crystal>
   <varray name="basis" >
    <v>      10.22228271      -2.21667734       0.00000000 </v>
    <v>      10.22228271       2.21667734       0.00000000 </v>
    <v>       9.74160157       0.00000000       3.80918902 </v>
   </varray>
   <i name="volume">    172.62865583 </i>
   <varray name="rec_basis" >
    <v>       0.04891275      -0.22556282      -0.12508924 </v>
    <v>       0.04891275       0.22556282      -0.12508924 </v>
    <v>      -0.00000000       0.00000000       0.26252307 </v>
   </varray>
  </crystal>
  <varray name="positions" >
   <v>       0.39979833       0.39979833       0.39979833 </v>
   <v>      -0.21048582      -0.21048582      -0.21048582 </v>
   <v>       0.00000000       0.00000000       0.00000000 </v>
   <v>      -0.39979833      -0.39979833      -0.39979833 </v>
   <v>       0.21048582       0.21048582       0.21048582 </v>
  </varray>
 </structure>
 <varray name="primitive_index" >
  <v type="int" >        1 </v>
  <v type="int" >        5 </v>
  <v type="int" >        3 </v>
  <v type="int" >        2 </v>
  <v type="int" >        4 </v>
 </varray>
 <kpoints>
  <varray name="kpointlist" >
   <v>       0.25000000       0.25000000       0.25000000 </v>
   <v>       0.18851108       0.18851108       0.19140246 </v>
   <v>       0.21925554       0.21925554       0.22070123 </v>
   <v>       0.28074446       0.28074446       0.27929877 </v>
   <v>       0.31148892       0.31148892       0.30859754 </v>
   <v>       0.26333372       0.23666628       0.25000000 </v>
   <v>       0.25666686       0.24333314       0.25000000 </v>
   <v>       0.24333314       0.25666686       0.25000000 </v>
   <v>       0.23666628       0.26333372       0.25000000 </v>
   <v>       0.25000000       0.25000000       0.22708702 </v>
   <v>       0.25000000       0.25000000       0.23854351 </v>
   <v>       0.25000000       0.25000000       0.26145649 </v>
   <v>       0.25000000       0.25000000       0.27291298 </v>
   <v>       0.20184480       0.17517735       0.19140246 </v>
   <v>       0.23258926       0.20592181       0.22070123 </v>
   <v>       0.29407819       0.26741074       0.27929877 </v>
   <v>       0.32482265       0.29815520       0.30859754 </v>
   <v>       0.19517794       0.18184422       0.19140246 </v>
   <v>       0.22592240       0.21258868       0.22070123 </v>
   <v>       0.28741132       0.27407760       0.27929877 </v>
   <v>       0.31815578       0.30482206       0.30859754 </v>
   <v>       0.18184422       0.19517794       0.19140246 </v>
   <v>       0.21258868       0.22592240       0.22070123 </v>
   <v>       0.27407760       0.28741132       0.27929877 </v>
   <v>       0.30482206       0.31815578       0.30859754 </v>
   <v>       0.17517735       0.20184480       0.19140246 </v>
   <v>       0.20592181       0.23258926       0.22070123 </v>
   <v>       0.26741074       0.29407819       0.27929877 </v>
   <v>       0.29815520       0.32482265       0.30859754 </v>
   <v>       0.18851108       0.18851108       0.16848949 </v>
   <v>       0.21925554       0.21925554       0.19778825 </v>
   <v>       0.28074446       0.28074446       0.25638579 </v>
   <v>       0.31148892       0.31148892       0.28568456 </v>
   <v>       0.18851108       0.18851108       0.17994598 </v>
   <v>       0.21925554       0.21925554       0.20924474 </v>
   <v>       0.28074446       0.28074446       0.26784228 </v>
   <v>       0.31148892       0.31148892       0.29714105 </v>
   <v>       0.18851108       0.18851108       0.20285895 </v>
   <v>       0.21925554       0.21925554       0.23215772 </v>
   <v>       0.28074446       0.28074446       0.29075526 </v>
   <v>       0.31148892       0.31148892       0.32005402 </v>
   <v>       0.18851108       0.18851108       0.21431544 </v>
   <v>       0.21925554       0.21925554       0.24361421 </v>
   <v>       0.28074446       0.28074446       0.30221175 </v>
   <v>       0.31148892       0.31148892       0.33151051 </v>
   <v>       0.26333372       0.23666628       0.22708702 </v>
   <v>       0.25666686       0.24333314       0.22708702 </v>
   <v>       0.24333314       0.25666686       0.22708702 </v>
   <v>       0.23666628       0.26333372       0.22708702 </v>
   <v>       0.26333372       0.23666628       0.23854351 </v>
   <v>       0.25666686       0.24333314       0.23854351 </v>
   <v>       0.24333314       0.25666686       0.23854351 </v>
   <v>       0.23666628       0.26333372       0.23854351 </v>
   <v>       0.26333372       0.23666628       0.26145649 </v>
   <v>       0.25666686       0.24333314       0.26145649 </v>
   <v>       0.24333314       0.25666686       0.26145649 </v>
   <v>       0.23666628       0.26333372       0.26145649 </v>
   <v>       0.26333372       0.23666628       0.27291298 </v>
   <v>       0.25666686       0.24333314       0.27291298 </v>
   <v>       0.24333314       0.25666686       0.27291298 </v>
   <v>       0.23666628       0.26333372       0.27291298 </v>
  </varray>
  <varray name="weights" >
   <v>       0.01639344 </v>
   <v>       0.01639344 </v>
   <v>       0.01639344 </v>
   <v>       0.01639344 </v>
   <v>       0.01639344 </v>
   <v>       0.01639344 </v>
   <v>       0.01639344 </v>
   <v>       0.01639344 </v>
   <v>       0.01639344 </v>
   <v>       0.01639344 </v>
   <v>       0.01639344 </v>
   <v>       0.01639344 </v>
   <v>       0.01639344 </v>
   <v>       0.01639344 </v>
   <v>       0.01639344 </v>
   <v>       0.01639344 </v>
   <v>       0.01639344 </v>
   <v>       0.01639344 </v>
   <v>       0.01639344 </v>
   <v>       0.01639344 </v>
   <v>       0.01639344 </v>
   <v>       0.01639344 </v>
   <v>       0.01639344 </v>
   <v>       0.01639344 </v>
   <v>       0.01639344 </v>
   <v>       0.01639344 </v>
   <v>       0.01639344 </v>
   <v>       0.01639344 </v>
   <v>       0.01639344 </v>
   <v>       0.01639344 </v>
   <v>       0.01639344 </v>
   <v>       0.01639344 </v>
   <v>       0.01639344 </v>
   <v>       0.01639344 </v>
   <v>       0.01639344 </v>
   <v>       0.01639344 </v>
   <v>       0.01639344 </v>
   <v>       0.01639344 </v>
   <v>       0.01639344 </v>
   <v>       0.01639344 </v>
   <v>       0.01639344 </v>
   <v>       0.01639344 </v>
   <v>       0.01639344 </v>
   <v>       0.01639344 </v>
   <v>       0.01639344 </v>
   <v>       0.01639344 </v>
   <v>       0.01639344 </v>
   <v>       0.01639344 </v>
   <v>       0.01639344 </v>
   <v>       0.01639344 </v>
   <v>       0.01639344 </v>
   <v>       0.01639344 </v>
   <v>       0.01639344 </v>
   <v>       0.01639344 </v>
   <v>       0.01639344 </v>
   <v>       0.01639344 </v>
   <v>       0.01639344 </v>
   <v>       0.01639344 </v>
   <v>       0.01639344 </v>
   <v>       0.01639344 </v>
   <v>       0.01639344 </v>
  </varray>
 </kpoints>
 <parameters>
  <separator name="general" >
   <i type="string" name="SYSTEM">BiTe</i>
   <i type="logical" name="LCOMPAT"> F  </i>
  </separator>
  <separator name="electronic" >
   <i type="string" name="PREC">accura</i>
   <i name="ENMAX">    600.00000000</i>
   <i name="ENAUG">    368.79200000</i>
   <i name="EDIFF">      0.00000010</i>
   <i type="int" name="IALGO">    58</i>
   <i type="int" name="IWAVPR">    10</i>
   <i type="int" name="NBANDS">    88</i>
   <i name="NELECT">     28.00000000</i>
   <i type="int" name="TURBO">     0</i>
   <i type="int" name="IRESTART">     0</i>
   <i type="int" name="NREBOOT">     0</i>
   <i type="int" name="NMIN">     0</i>
   <i name="EREF">      0.00000000</i>
   <separator name="electronic smearing" >
    <i type="int" name="ISMEAR">     0</i>
    <i name="SIGMA">      0.01000000</i>
    <i name="KSPACING">      0.50000000</i>
    <i type="logical" name="KGAMMA"> T  </i>
   </separator>
   <separator name="electronic projectors" >
    <i type="logical" name="LREAL"> F  </i>
    <v name="ROPT">      0.00000000      0.00000000</v>
    <i type="int" name="LMAXPAW">  -100</i>
    <i type="int" name="LMAXMIX">     4</i>
    <i type="logical" name="NLSPLINE"> F  </i>
   </separator>
   <separator name="electronic startup" >
    <i type="int" name="ISTART">     0</i>
    <i type="int" name="ICHARG">    11</i>
    <i type="int" name="INIWAV">     1</i>
   </separator>
   <separator name="electronic spin" >
    <i type="int" name="ISPIN">     1</i>
    <i type="logical" name="LNONCOLLINEAR"> T  </i>
    <v name="MAGMOM">      1.00000000      1.00000000      1.00000000      1.00000000      1.00000000      1.00000000      1.00000000      1.00000000      1.00000000      1.00000000      1.00000000      1.00000000      1.00000000      1.00000000      1.00000000</v>
    <i name="NUPDOWN">     -1.00000000</i>
    <i type="logical" name="LSORBIT"> T  </i>
    <v name="SAXIS">      0.00000000      0.00000000      1.00000000</v>
    <i type="logical" name="LSPIRAL"> F  </i>
    <v name="QSPIRAL">      0.00000000      0.00000000      0.00000000</v>
    <i type="logical" name="LZEROZ"> F  </i>
   </separator>
   <separator name="electronic exchange-correlation" >
    <i type="logical" name="LASPH"> F  </i>
    <i type="logical" name="LMETAGGA"> F  </i>
   </separator>
   <separator name="electronic convergence" >
    <i type="int" name="NELM">    60</i>
    <i type="int" name="NELMDL">     0</i>
    <i type="int" name="NELMIN">     2</i>
    <i name="ENINI">    600.00000000</i>
    <separator name="electronic convergence detail" >
     <i type="logical" name="LDIAG"> T  </i>
     <i type="logical" name="LSUBROT"> F  </i>
     <i name="WEIMIN">      0.00000000</i>
     <i name="EBREAK">      0.00000000</i>
     <i name="DEPER">      0.30000000</i>
     <i type="int" name="NRMM">     4</i>
     <i name="TIME">      0.40000000</i>
    </separator>
   </separator>
   <separator name="electronic mixer" >
    <i name="AMIX">      0.40000000</i>
    <i name="BMIX">      1.00000000</i>
    <i name="AMIN">      0.10000000</i>
    <i name="AMIX_MAG">      1.60000000</i>
    <i name="BMIX_MAG">      1.00000000</i>
    <separator name="electronic mixer details" >
     <i type="int" name="IMIX">     4</i>
     <i type="logical" name="MIXFIRST"> F  </i>
     <i type="int" name="MAXMIX">   -45</i>
     <i name="WC">    100.00000000</i>
     <i type="int" name="INIMIX">     1</i>
     <i type="int" name="MIXPRE">     1</i>
     <i type="int" name="MREMOVE">     5</i>
    </separator>
   </separator>
   <separator name="electronic dipolcorrection" >
    <i type="logical" name="LDIPOL"> F  </i>
    <i type="logical" name="LMONO"> F  </i>
    <i type="int" name="IDIPOL">     0</i>
    <i name="EPSILON">      1.00000000</i>
    <v name="DIPOL">   -100.00000000   -100.00000000   -100.00000000</v>
    <i name="EFIELD">      0.00000000</i>
   </separator>
  </separator>
  <separator name="grids" >
   <i type="int" name="NGX">    84</i>
   <i type="int" name="NGY">    84</i>
   <i type="int" name="NGZ">    84</i>
   <i type="int" name="NGXF">   168</i>
   <i type="int" name="NGYF">   168</i>
   <i type="int" name="NGZF">   168</i>
   <i type="logical" name="ADDGRID"> T  </i>
  </separator>
  <separator name="ionic" >
   <i type="int" name="NSW">     0</i>
   <i type="int" name="IBRION">    -1</i>
   <i type="int" name="MDALGO">     0</i>
   <i type="int" name="ISIF">     2</i>
   <i name="PSTRESS">      0.00000000</i>
   <i name="EDIFFG">     -0.00100000</i>
   <i type="int" name="NFREE">     0</i>
   <i name="POTIM">      0.50000000</i>
   <i name="SMASS">     -3.00000000</i>
   <i name="SCALEE">      1.00000000</i>
  </separator>
  <separator name="ionic md" >
   <i name="TEBEG">      0.00010000</i>
   <i name="TEEND">      0.00010000</i>
   <i type="int" name="NBLOCK">     1</i>
   <i type="int" name="KBLOCK">     1</i>
   <i type="int" name="NPACO">   256</i>
   <i name="APACO">     16.00000000</i>
  </separator>
  <separator name="symmetry" >
   <i type="int" name="ISYM">    -1</i>
   <i name="SYMPREC">      0.00001000</i>
  </separator>
  <separator name="dos" >
   <i type="int" name="LORBIT">     0</i>
   <v name="RWIGS">     -1.00000000     -1.00000000</v>
   <i type="int" name="NEDOS">   301</i>
   <i name="EMIN">     10.00000000</i>
   <i name="EMAX">    -10.00000000</i>
   <i name="EFERMI">      0.00000000</i>
  </separator>
  <separator name="writing" >
   <i type="int" name="NWRITE">     2</i>
   <i type="logical" name="LWAVE"> F  </i>
   <i type="logical" name="LDOWNSAMPLE"> F  </i>
   <i type="logical" name="LCHARG"> F  </i>
   <i type="logical" name="LPARD"> F  </i>
   <i type="logical" name="LVTOT"> F  </i>
   <i type="logical" name="LVHAR"> F  </i>
   <i type="logical" name="LELF"> F  </i>
   <i type="logical" name="LOPTICS"> F  </i>
   <v name="STM">      0.00000000      0.00000000      0.00000000      0.00000000      0.00000000      0.00000000      0.00000000</v>
  </separator>
  <separator name="performance" >
   <i type="int" name="NPAR">     4</i>
   <i type="int" name="NSIM">     4</i>
   <i type="int" name="NBLK">    -1</i>
   <i type="logical" name="LPLANE"> T  </i>
   <i type="logical" name="LSCALAPACK"> T  </i>
   <i type="logical" name="LSCAAWARE"> F  </i>
   <i type="logical" name="LSCALU"> F  </i>
   <i type="logical" name="LASYNC"> F  </i>
   <i type="logical" name="LORBITALREAL"> F  </i>
  </separator>
  <separator name="miscellaneous" >
   <i type="int" name="IDIOT">     3</i>
   <i type="int" name="ISPECIAL">     0</i>
   <i type="logical" name="LMUSIC"> F  </i>
   <v name="POMASS">    208.98000000    127.60000000</v>
   <v name="DARWINR">      0.00000000      0.00000000</v>
   <v name="DARWINV">      1.00000000      1.00000000</v>
   <i type="logical" name="LCORR"> T  </i>
  </separator>
  <i type="logical" name="GGA_COMPAT"> F  </i>
  <i type="logical" name="LBERRY"> F  </i>
  <i type="int" name="ICORELEVEL">     0</i>
  <i type="logical" name="LDAU"> F  </i>
  <i type="int" name="I_CONSTRAINED_M">     0</i>
  <separator name="electronic exchange-correlation" >
   <i type="string" name="GGA">--</i>
   <i type="int" name="VOSKOWN">     0</i>
   <i type="logical" name="LHFCALC"> F  </i>
   <i type="string" name="PRECFOCK"></i>
   <i type="logical" name="LSYMGRAD"> F  </i>
   <i type="logical" name="LHFONE"> F  </i>
   <i type="logical" name="LRHFCALC"> F  </i>
   <i type="logical" name="LTHOMAS"> F  </i>
   <i type="logical" name="LMODELHF"> F  </i>
   <i name="ENCUT4O">     -1.00000000</i>
   <i type="int" name="EXXOEP">     0</i>
   <i type="int" name="FOURORBIT">     0</i>
   <i name="AEXX">      0.00000000</i>
   <i name="HFALPHA">      0.00000000</i>
   <i name="MCALPHA">      0.00000000</i>
   <i name="ALDAX">      1.00000000</i>
   <i name="AGGAX">      1.00000000</i>
   <i name="ALDAC">      1.00000000</i>
   <i name="AGGAC">      1.00000000</i>
   <i type="int" name="NKREDX">     1</i>
   <i type="int" name="NKREDY">     1</i>
   <i type="int" name="NKREDZ">     1</i>
   <i type="logical" name="SHIFTRED"> F  </i>
   <i type="logical" name="ODDONLY"> F  </i>
   <i type="logical" name="EVENONLY"> F  </i>
   <i type="int" name="LMAXFOCK">     0</i>
   <i type="int" name="NMAXFOCKAE">     0</i>
   <i type="logical" name="LFOCKAEDFT"> F  </i>
   <i name="HFSCREEN">      0.00000000</i>
   <i name="HFSCREENC">      0.00000000</i>
   <i type="int" name="NBANDSGWLOW">     0</i>
  </separator>
  <separator name="vdW DFT" >
   <i type="logical" name="LUSE_VDW"> F  </i>
   <i name="Zab_VDW">     -0.84910000</i>
   <i name="PARAM1">      0.12340000</i>
   <i name="PARAM2">      1.00000000</i>
   <i name="PARAM3">      0.00000000</i>
  </separator>
  <separator name="model GW" >
   <i type="int" name="MODEL_GW">     0</i>
   <i name="MODEL_EPS0">     20.71543870</i>
   <i name="MODEL_ALPHA">      1.00000000</i>
  </separator>
  <separator name="linear response parameters" >
   <i type="logical" name="LEPSILON"> F  </i>
   <i type="logical" name="LRPA"> F  </i>
   <i type="logical" name="LNABLA"> F  </i>
   <i type="logical" name="LVEL"> F  </i>
   <i type="int" name="KINTER">     0</i>
   <i name="CSHIFT">      0.10000000</i>
   <i name="OMEGAMAX">     -1.00000000</i>
   <i name="DEG_THRESHOLD">      0.00200000</i>
   <i name="RTIME">     -0.10000000</i>
   <i name="WPLASMAI">      0.00000000</i>
   <v name="DFIELD">      0.00000000      0.00000000      0.00000000</v>
   <v name="WPLASMA">      0.00000000      0.00000000      0.00000000      0.00000000      0.00000000      0.00000000      0.00000000      0.00000000      0.00000000</v>
  </separator>
  <separator name="orbital magnetization" >
   <i type="logical" name="NUCIND"> F  </i>
   <v name="MAGPOS">      0.00000000      0.00000000      0.00000000</v>
   <i type="logical" name="LNICSALL"> T  </i>
   <i type="logical" name="ORBITALMAG"> F  </i>
   <i type="logical" name="LMAGBLOCH"> F  </i>
   <i type="logical" name="LCHIMAG"> F  </i>
   <i type="logical" name="LGAUGE"> T  </i>
   <i type="int" name="MAGATOM">     0</i>
   <v name="MAGDIPOL">      0.00000000      0.00000000      0.00000000</v>
   <v name="AVECCONST">      0.00000000      0.00000000      0.00000000</v>
  </separator>
  <separator name="response functions" >
   <i type="logical" name="LADDER"> F  </i>
   <i type="logical" name="LRPAFORCE"> F  </i>
   <i type="logical" name="LFXC"> F  </i>
   <i type="logical" name="LHARTREE"> T  </i>
   <i type="int" name="IBSE">     0</i>
   <v type="int" name="KPOINT">    -1     0     0     0</v>
   <i type="logical" name="LTCTE"> F  </i>
   <i type="logical" name="LTETE"> F  </i>
   <i type="logical" name="LTRIPLET"> F  </i>
   <i type="logical" name="LFXCEPS"> F  </i>
   <i type="logical" name="LFXHEG"> F  </i>
   <i type="int" name="NATURALO">     2</i>
   <i type="logical" name="L2ORDER"> F  </i>
   <i type="logical" name="LMP2LT"> F  </i>
   <i type="logical" name="LUSEW"> F  </i>
   <i name="ENCUTGW">     -2.00000000</i>
   <i name="ENCUTGWSOFT">     -2.00000000</i>
   <i name="ENCUTLF">     -1.00000000</i>
   <i type="int" name="LMAXMP2">    -1</i>
   <i name="SCISSOR">      0.00000000</i>
   <i type="int" name="NOMEGA">     0</i>
   <i type="int" name="NOMEGAR">     0</i>
   <i type="int" name="NBANDSGW">    -1</i>
   <i type="int" name="NBANDSO">    -1</i>
   <i type="int" name="NBANDSV">    -1</i>
   <i type="int" name="NELM">     1</i>
   <i type="int" name="NELMHF">     1</i>
   <i type="int" name="DIM">     3</i>
   <i type="int" name="ANTIRES">     0</i>
   <i name="OMEGAMAX">    -30.00000000</i>
   <i name="OMEGAMIN">    -30.00000000</i>
   <i name="OMEGATL">   -200.00000000</i>
   <i type="int" name="OMEGAGRID">   140</i>
   <i name="CSHIFT">     -0.10000000</i>
   <i type="logical" name="SELFENERGY"> F  </i>
   <i type="logical" name="LSPECTRAL"> F  </i>
   <i type="logical" name="LSPECTRALGW"> F  </i>
   <i type="logical" name="LSINGLES"> F  </i>
   <i type="logical" name="LFERMIGW"> F  </i>
   <i type="logical" name="ODDONLYGW"> F  </i>
   <i type="logical" name="EVENONLYGW"> F  </i>
   <i type="int" name="NKREDLFX">     1</i>
   <i type="int" name="NKREDLFY">     1</i>
   <i type="int" name="NKREDLFZ">     1</i>
   <i type="int" name="MAXMEM">  2800</i>
   <i type="int" name="TELESCOPE">     0</i>
   <i type="int" name="TAUPAR">     1</i>
   <i type="int" name="OMEGAPAR">    -1</i>
   <i name="LAMBDA">      1.00000000</i>
  </separator>
  <separator name="External order field" >
   <i name="OFIELD_KAPPA">      0.00000000</i>
   <v name="OFIELD_K">      0.00000000      0.00000000      0.00000000</v>
   <i name="OFIELD_Q6_NEAR">      0.00000000</i>
   <i name="OFIELD_Q6_FAR">      0.00000000</i>
   <i name="OFIELD_A">      0.00000000</i>
  </separator>
 </parameters>
 <atominfo>
  <atoms>       5 </atoms>
  <types>       2 </types>
  <array name="atoms" >
   <dimension dim="1">ion</dimension>
   <field type="string">element</field>
   <field type="int">atomtype</field>
   <set>
    <rc><c>Bi</c><c>   1</c></rc>
    <rc><c>Bi</c><c>   1</c></rc>
    <rc><c>Te</c><c>   2</c></rc>
    <rc><c>Te</c><c>   2</c></rc>
    <rc><c>Te</c><c>   2</c></rc>
   </set>
  </array>
  <array name="atomtypes" >
   <dimension dim="1">type</dimension>
   <field type="int">atomspertype</field>
   <field type="string">element</field>
   <field>mass</field>
   <field>valence</field>
   <field type="string">pseudopotential</field>
   <set>
    <rc><c>   2</c><c>Bi</c><c>    208.98000000</c><c>      5.00000000</c><c>  PAW_PBE Bi 08Apr2002                  </c></rc>
    <rc><c>   3</c><c>Te</c><c>    127.60000000</c><c>      6.00000000</c><c>  PAW_PBE Te 08Apr2002                  </c></rc>
   </set>
  </array>
 </atominfo>
 <structure name="initialpos" >
  <crystal>
   <varray name="basis" >
    <v>      10.22228271      -2.21667734       0.00000000 </v>
    <v>      10.22228271       2.21667734       0.00000000 </v>
    <v>       9.74160157       0.00000000       3.80918902 </v>
   </varray>
   <i name="volume">    172.62865583 </i>
   <varray name="rec_basis" >
    <v>       0.04891275      -0.22556282      -0.12508924 </v>
    <v>       0.04891275       0.22556282      -0.12508924 </v>
    <v>      -0.00000000       0.00000000       0.26252307 </v>
   </varray>
  </crystal>
  <varray name="positions" >
   <v>       0.39979833       0.39979833       0.39979833 </v>
   <v>       0.60020167       0.60020167       0.60020167 </v>
   <v>       0.00000000       0.00000000       0.00000000 </v>
   <v>       0.21048582       0.21048582       0.21048582 </v>
   <v>       0.78951418       0.78951418       0.78951418 </v>
  </varray>
 </structure>
 <calculation>
  <scstep>
   <time name="total">  260.90  267.35</time>
   <energy>
    <i name="alphaZ">      5.99831677 </i>
    <i name="ewald">   -983.58522533 </i>
    <i name="hartreedc">    -59.98562904 </i>
    <i name="XCdc">   -303.85049003 </i>
    <i name="pawpsdc">   1910.19755357 </i>
    <i name="pawaedc">  -1561.17602897 </i>
    <i name="eentropy">     -0.00015728 </i>
    <i name="bandstr">    162.27491866 </i>
    <i name="atom">    971.44149227 </i>
    <i name="e_fr_energy">    141.31475063 </i>
    <i name="e_wo_entrp">    141.31490791 </i>
    <i name="e_0_energy">    141.31482927 </i>
   </energy>
  </scstep>
  <scstep>
   <time name="total">  280.98  288.01</time>
   <energy>
    <i name="e_fr_energy">     10.27575194 </i>
    <i name="e_wo_entrp">     10.27575198 </i>
    <i name="e_0_energy">     10.27575196 </i>
   </energy>
  </scstep>
  <scstep>
   <time name="total">  270.25  276.09</time>
   <energy>
    <i name="e_fr_energy">     -2.24163163 </i>
    <i name="e_wo_entrp">     -2.24163163 </i>
    <i name="e_0_energy">     -2.24163163 </i>
   </energy>
  </scstep>
  <scstep>
   <time name="total">  273.81  280.09</time>
   <energy>
    <i name="e_fr_energy">     -2.56707693 </i>
    <i name="e_wo_entrp">     -2.56707693 </i>
    <i name="e_0_energy">     -2.56707693 </i>
   </energy>
  </scstep>
  <scstep>
   <time name="total">  266.14  270.89</time>
   <energy>
    <i name="e_fr_energy">     -2.57539170 </i>
    <i name="e_wo_entrp">     -2.57539170 </i>
    <i name="e_0_energy">     -2.57539170 </i>
   </energy>
  </scstep>
  <scstep>
   <time name="total">  228.64  231.94</time>
   <energy>
    <i name="e_fr_energy">     -2.57539170 </i>
    <i name="e_wo_entrp">     -2.57539170 </i>
    <i name="e_0_energy">     -2.57539170 </i>
   </energy>
  </scstep>
  <scstep>
   <time name="total">  228.04  232.24</time>
   <energy>
    <i name="e_fr_energy">     -2.57568730 </i>
    <i name="e_wo_entrp">     -2.57568730 </i>
    <i name="e_0_energy">     -2.57568730 </i>
   </energy>
  </scstep>
  <scstep>
   <time name="total">  227.42  232.72</time>
   <energy>
    <i name="e_fr_energy">     -2.57576973 </i>
    <i name="e_wo_entrp">     -2.57576973 </i>
    <i name="e_0_energy">     -2.57576973 </i>
   </energy>
  </scstep>
  <scstep>
   <time name="total">  227.73  232.87</time>
   <energy>
    <i name="e_fr_energy">     -2.57579558 </i>
    <i name="e_wo_entrp">     -2.57579558 </i>
    <i name="e_0_energy">     -2.57579558 </i>
   </energy>
  </scstep>
  <scstep>
   <time name="total">  227.01  230.95</time>
   <energy>
    <i name="e_fr_energy">     -2.57579738 </i>
    <i name="e_wo_entrp">     -2.57579738 </i>
    <i name="e_0_energy">     -2.57579738 </i>
   </energy>
  </scstep>
  <scstep>
   <time name="total">  223.42  226.93</time>
   <energy>
    <i name="e_fr_energy">     -2.57579752 </i>
    <i name="e_wo_entrp">     -2.57579752 </i>
    <i name="e_0_energy">     -2.57579752 </i>
   </energy>
  </scstep>
  <scstep>
   <time name="total">  299.40  304.17</time>
   <energy>
    <i name="alphaZ">      5.99831677 </i>
    <i name="ewald">   -983.58522533 </i>
    <i name="hartreedc">    -59.98562904 </i>
    <i name="XCdc">   -303.85049003 </i>
    <i name="pawpsdc">   1910.19755357 </i>
    <i name="pawaedc">  -1561.17602897 </i>
    <i name="eentropy">     -0.00000000 </i>
    <i name="bandstr">     18.38421321 </i>
    <i name="atom">    971.44149227 </i>
    <i name="e_fr_energy">     -2.57579754 </i>
    <i name="e_wo_entrp">     -2.57579754 </i>
    <i name="e_0_energy">     -2.57579754 </i>
   </energy>
  </scstep>
  <structure>
   <crystal>
    <varray name="basis" >
     <v>      10.22228271      -2.21667734       0.00000000 </v>
     <v>      10.22228271       2.21667734       0.00000000 </v>
     <v>       9.74160157       0.00000000       3.80918902 </v>
    </varray>
    <i name="volume">    172.62865583 </i>
    <varray name="rec_basis" >
     <v>       0.04891275      -0.22556282      -0.12508924 </v>
     <v>       0.04891275       0.22556282      -0.12508924 </v>
     <v>      -0.00000000       0.00000000       0.26252307 </v>
    </varray>
   </crystal>
   <varray name="positions" >
    <v>       0.39979833       0.39979833       0.39979833 </v>
    <v>       0.60020167       0.60020167       0.60020167 </v>
    <v>       0.00000000       0.00000000       0.00000000 </v>
    <v>       0.21048582       0.21048582       0.21048582 </v>
    <v>       0.78951418       0.78951418       0.78951418 </v>
   </varray>
  </structure>
  <varray name="forces" >
   <v>       0.54364108      -0.00000055       0.06859588 </v>
   <v>      -0.54364151      -0.00000061      -0.06859476 </v>
   <v>       0.00000029       0.00000080      -0.00000081 </v>
   <v>       0.37520859       0.00000044       0.04762912 </v>
   <v>      -0.37520845      -0.00000008      -0.04762943 </v>
  </varray>
  <varray name="stress" >
   <v>      91.68473781      -0.00000847     -46.62164756 </v>
   <v>      -0.00000656     460.96248326       0.00000415 </v>
   <v>     -46.62164736       0.00000390     455.10153156 </v>
  </varray>
  <energy>
   <i name="e_fr_energy">     -4.01585675 </i>
   <i name="e_wo_entrp">     -4.01585675 </i>
   <i name="e_0_energy">     -0.00000000 </i>
  </energy>
  <time name="totalsc"> 3251.90 3317.54</time>
  <eigenvalues>
   <array>
    <dimension dim="1">band</dimension>
    <dimension dim="2">kpoint</dimension>
    <dimension dim="3">spin</dimension>
    <field>eigene</field>
    <field>occ</field>
    <set>
     <set comment="spin 1">
      <set comment="kpoint 1">
       <r>   -7.5950    1.0000 </r>
       <r>   -7.5950    1.0000 </r>
       <r>   -7.0906    1.0000 </r>
       <r>   -7.0906    1.0000 </r>
       <r>   -5.5496    1.0000 </r>
       <r>   -5.5496    1.0000 </r>
       <r>   -3.7472    1.0000 </r>
       <r>   -3.7472    1.0000 </r>
       <r>   -2.4703    1.0000 </r>
       <r>   -2.4703    1.0000 </r>
       <r>    2.5611    1.0000 </r>
       <r>    2.5611    1.0000 </r>
       <r>    3.1269    1.0000 </r>
       <r>    3.1269    1.0000 </r>
       <r>    3.5847    1.0000 </r>
       <r>    3.5847    1.0000 </r>
       <r>    3.8408    1.0000 </r>
       <r>    3.8408    1.0000 </r>
       <r>    4.0731    1.0000 </r>
       <r>    4.0731    1.0000 </r>
       <r>    4.2799    1.0000 </r>
       <r>    4.2799    1.0000 </r>
       <r>    4.3109    1.0000 </r>
       <r>    4.3109    1.0000 </r>
       <r>    4.7650    1.0000 </r>
       <r>    4.7651    1.0000 </r>
       <r>    5.1627    1.0000 </r>
       <r>    5.1627    1.0000 </r>
       <r>    5.5138    0.0000 </r>
       <r>    5.5138    0.0000 </r>
       <r>    6.2697    0.0000 </r>
       <r>    6.2697    0.0000 </r>
       <r>    6.5557    0.0000 </r>
       <r>    6.5557    0.0000 </r>
       <r>    6.8927    0.0000 </r>
       <r>    6.8927    0.0000 </r>
       <r>    7.8154    0.0000 </r>
       <r>    7.8154    0.0000 </r>
       <r>    8.0121    0.0000 </r>
       <r>    8.0122    0.0000 </r>
       <r>   10.3931    0.0000 </r>
       <r>   10.3931    0.0000 </r>
       <r>   11.0256    0.0000 </r>
       <r>   11.0256    0.0000 </r>
       <r>   11.1171    0.0000 </r>
       <r>   11.1171    0.0000 </r>
       <r>   11.2108    0.0000 </r>
       <r>   11.2108    0.0000 </r>
       <r>   12.2562    0.0000 </r>
       <r>   12.2562    0.0000 </r>
       <r>   12.2696    0.0000 </r>
       <r>   12.2696    0.0000 </r>
       <r>   12.4693    0.0000 </r>
       <r>   12.4694    0.0000 </r>
       <r>   12.6804    0.0000 </r>
       <r>   12.6804    0.0000 </r>
       <r>   12.9610    0.0000 </r>
       <r>   12.9610    0.0000 </r>
       <r>   13.0134    0.0000 </r>
       <r>   13.0134    0.0000 </r>
       <r>   13.2171    0.0000 </r>
       <r>   13.2172    0.0000 </r>
       <r>   14.1662    0.0000 </r>
       <r>   14.1662    0.0000 </r>
       <r>   14.1961    0.0000 </r>
       <r>   14.1961    0.0000 </r>
       <r>   14.6251    0.0000 </r>
       <r>   14.6252    0.0000 </r>
       <r>   15.1571    0.0000 </r>
       <r>   15.1571    0.0000 </r>
       <r>   15.2946    0.0000 </r>
       <r>   15.2946    0.0000 </r>
       <r>   15.4188    0.0000 </r>
       <r>   15.4189    0.0000 </r>
       <r>   17.0985    0.0000 </r>
       <r>   17.0985    0.0000 </r>
       <r>   17.1622    0.0000 </r>
       <r>   17.1622    0.0000 </r>
       <r>   17.5072    0.0000 </r>
       <r>   17.5072    0.0000 </r>
       <r>   18.3162    0.0000 </r>
       <r>   18.3162    0.0000 </r>
       <r>   18.6788    0.0000 </r>
       <r>   18.6788    0.0000 </r>
       <r>   19.1176    0.0000 </r>
       <r>   19.1178    0.0000 </r>
       <r>   19.9636    0.0000 </r>
       <r>   19.9842    0.0000 </r>
      </set>
      <set comment="kpoint 2">
       <r>   -7.6173    1.0000 </r>
       <r>   -7.6173    1.0000 </r>
       <r>   -7.0387    1.0000 </r>
       <r>   -7.0387    1.0000 </r>
       <r>   -5.6272    1.0000 </r>
       <r>   -5.6272    1.0000 </r>
       <r>   -3.6142    1.0000 </r>
       <r>   -3.6141    1.0000 </r>
       <r>   -2.5679    1.0000 </r>
       <r>   -2.5679    1.0000 </r>
       <r>    2.6189    1.0000 </r>
       <r>    2.6189    1.0000 </r>
       <r>    3.0575    1.0000 </r>
       <r>    3.0575    1.0000 </r>
       <r>    3.6121    1.0000 </r>
       <r>    3.6121    1.0000 </r>
       <r>    3.8710    1.0000 </r>
       <r>    3.8710    1.0000 </r>
       <r>    4.0881    1.0000 </r>
       <r>    4.0881    1.0000 </r>
       <r>    4.2586    1.0000 </r>
       <r>    4.2586    1.0000 </r>
       <r>    4.2820    1.0000 </r>
       <r>    4.2820    1.0000 </r>
       <r>    4.8041    1.0000 </r>
       <r>    4.8041    1.0000 </r>
       <r>    5.1170    1.0000 </r>
       <r>    5.1170    1.0000 </r>
       <r>    5.5247    0.0000 </r>
       <r>    5.5247    0.0000 </r>
       <r>    6.3188    0.0000 </r>
       <r>    6.3188    0.0000 </r>
       <r>    6.4903    0.0000 </r>
       <r>    6.4903    0.0000 </r>
       <r>    6.8236    0.0000 </r>
       <r>    6.8237    0.0000 </r>
       <r>    7.8639    0.0000 </r>
       <r>    7.8639    0.0000 </r>
       <r>    8.0900    0.0000 </r>
       <r>    8.0900    0.0000 </r>
       <r>   10.4219    0.0000 </r>
       <r>   10.4220    0.0000 </r>
       <r>   10.9683    0.0000 </r>
       <r>   10.9683    0.0000 </r>
       <r>   11.1836    0.0000 </r>
       <r>   11.1836    0.0000 </r>
       <r>   11.2780    0.0000 </r>
       <r>   11.2780    0.0000 </r>
       <r>   12.0891    0.0000 </r>
       <r>   12.0891    0.0000 </r>
       <r>   12.1152    0.0000 </r>
       <r>   12.1152    0.0000 </r>
       <r>   12.2753    0.0000 </r>
       <r>   12.2753    0.0000 </r>
       <r>   12.8104    0.0000 </r>
       <r>   12.8104    0.0000 </r>
       <r>   12.8505    0.0000 </r>
       <r>   12.8505    0.0000 </r>
       <r>   12.8967    0.0000 </r>
       <r>   12.8968    0.0000 </r>
       <r>   13.3739    0.0000 </r>
       <r>   13.3740    0.0000 </r>
       <r>   14.3915    0.0000 </r>
       <r>   14.3915    0.0000 </r>
       <r>   14.4772    0.0000 </r>
       <r>   14.4772    0.0000 </r>
       <r>   14.6686    0.0000 </r>
       <r>   14.6687    0.0000 </r>
       <r>   15.0890    0.0000 </r>
       <r>   15.0891    0.0000 </r>
       <r>   15.5628    0.0000 </r>
       <r>   15.5628    0.0000 </r>
       <r>   15.6050    0.0000 </r>
       <r>   15.6050    0.0000 </r>
       <r>   16.7845    0.0000 </r>
       <r>   16.7845    0.0000 </r>
       <r>   16.8564    0.0000 </r>
       <r>   16.8564    0.0000 </r>
       <r>   17.3445    0.0000 </r>
       <r>   17.3445    0.0000 </r>
       <r>   17.9425    0.0000 </r>
       <r>   17.9425    0.0000 </r>
       <r>   18.2955    0.0000 </r>
       <r>   18.2955    0.0000 </r>
       <r>   19.4898    0.0000 </r>
       <r>   19.4905    0.0000 </r>
       <r>   19.7948    0.0000 </r>
       <r>   19.7999    0.0000 </r>
      </set>
      <set comment="kpoint 3">
       <r>   -7.6068    1.0000 </r>
       <r>   -7.6067    1.0000 </r>
       <r>   -7.0641    1.0000 </r>
       <r>   -7.0640    1.0000 </r>
       <r>   -5.5894    1.0000 </r>
       <r>   -5.5894    1.0000 </r>
       <r>   -3.6811    1.0000 </r>
       <r>   -3.6811    1.0000 </r>
       <r>   -2.5177    1.0000 </r>
       <r>   -2.5177    1.0000 </r>
       <r>    2.5892    1.0000 </r>
       <r>    2.5892    1.0000 </r>
       <r>    3.0925    1.0000 </r>
       <r>    3.0926    1.0000 </r>
       <r>    3.5986    1.0000 </r>
       <r>    3.5986    1.0000 </r>
       <r>    3.8574    1.0000 </r>
       <r>    3.8574    1.0000 </r>
       <r>    4.0802    1.0000 </r>
       <r>    4.0802    1.0000 </r>
       <r>    4.2714    1.0000 </r>
       <r>    4.2714    1.0000 </r>
       <r>    4.2929    1.0000 </r>
       <r>    4.2929    1.0000 </r>
       <r>    4.7858    1.0000 </r>
       <r>    4.7858    1.0000 </r>
       <r>    5.1406    1.0000 </r>
       <r>    5.1406    1.0000 </r>
       <r>    5.5172    0.0000 </r>
       <r>    5.5172    0.0000 </r>
       <r>    6.2958    0.0000 </r>
       <r>    6.2958    0.0000 </r>
       <r>    6.5219    0.0000 </r>
       <r>    6.5219    0.0000 </r>
       <r>    6.8565    0.0000 </r>
       <r>    6.8565    0.0000 </r>
       <r>    7.8406    0.0000 </r>
       <r>    7.8406    0.0000 </r>
       <r>    8.0527    0.0000 </r>
       <r>    8.0527    0.0000 </r>
       <r>   10.4084    0.0000 </r>
       <r>   10.4084    0.0000 </r>
       <r>   10.9928    0.0000 </r>
       <r>   10.9928    0.0000 </r>
       <r>   11.1492    0.0000 </r>
       <r>   11.1492    0.0000 </r>
       <r>   11.2428    0.0000 </r>
       <r>   11.2428    0.0000 </r>
       <r>   12.1718    0.0000 </r>
       <r>   12.1718    0.0000 </r>
       <r>   12.1888    0.0000 </r>
       <r>   12.1889    0.0000 </r>
       <r>   12.3715    0.0000 </r>
       <r>   12.3715    0.0000 </r>
       <r>   12.7847    0.0000 </r>
       <r>   12.7847    0.0000 </r>
       <r>   12.8827    0.0000 </r>
       <r>   12.8827    0.0000 </r>
       <r>   12.9267    0.0000 </r>
       <r>   12.9268    0.0000 </r>
       <r>   13.2930    0.0000 </r>
       <r>   13.2930    0.0000 </r>
       <r>   14.2852    0.0000 </r>
       <r>   14.2852    0.0000 </r>
       <r>   14.3358    0.0000 </r>
       <r>   14.3358    0.0000 </r>
       <r>   14.6799    0.0000 </r>
       <r>   14.6799    0.0000 </r>
       <r>   15.1206    0.0000 </r>
       <r>   15.1206    0.0000 </r>
       <r>   15.4405    0.0000 </r>
       <r>   15.4405    0.0000 </r>
       <r>   15.4760    0.0000 </r>
       <r>   15.4760    0.0000 </r>
       <r>   16.9397    0.0000 </r>
       <r>   16.9397    0.0000 </r>
       <r>   17.0015    0.0000 </r>
       <r>   17.0015    0.0000 </r>
       <r>   17.4145    0.0000 </r>
       <r>   17.4145    0.0000 </r>
       <r>   18.1278    0.0000 </r>
       <r>   18.1278    0.0000 </r>
       <r>   18.4854    0.0000 </r>
       <r>   18.4854    0.0000 </r>
       <r>   19.3392    0.0000 </r>
       <r>   19.3393    0.0000 </r>
       <r>   19.8542    0.0000 </r>
       <r>   19.8577    0.0000 </r>
      </set>
      <set comment="kpoint 4">
       <r>   -7.5821    1.0000 </r>
       <r>   -7.5821    1.0000 </r>
       <r>   -7.1175    1.0000 </r>
       <r>   -7.1175    1.0000 </r>
       <r>   -5.5089    1.0000 </r>
       <r>   -5.5089    1.0000 </r>
       <r>   -3.8111    1.0000 </r>
       <r>   -3.8110    1.0000 </r>
       <r>   -2.4265    1.0000 </r>
       <r>   -2.4265    1.0000 </r>
       <r>    2.5352    1.0000 </r>
       <r>    2.5352    1.0000 </r>
       <r>    3.1603    1.0000 </r>
       <r>    3.1603    1.0000 </r>
       <r>    3.5706    1.0000 </r>
       <r>    3.5706    1.0000 </r>
       <r>    3.8220    1.0000 </r>
       <r>    3.8220    1.0000 </r>
       <r>    4.0669    1.0000 </r>
       <r>    4.0669    1.0000 </r>
       <r>    4.2866    1.0000 </r>
       <r>    4.2866    1.0000 </r>
       <r>    4.3329    1.0000 </r>
       <r>    4.3330    1.0000 </r>
       <r>    4.7426    1.0000 </r>
       <r>    4.7426    1.0000 </r>
       <r>    5.1814    1.0000 </r>
       <r>    5.1815    1.0000 </r>
       <r>    5.5156    0.0000 </r>
       <r>    5.5156    0.0000 </r>
       <r>    6.2414    0.0000 </r>
       <r>    6.2414    0.0000 </r>
       <r>    6.5903    0.0000 </r>
       <r>    6.5903    0.0000 </r>
       <r>    6.9316    0.0000 </r>
       <r>    6.9316    0.0000 </r>
       <r>    7.7891    0.0000 </r>
       <r>    7.7891    0.0000 </r>
       <r>    7.9696    0.0000 </r>
       <r>    7.9696    0.0000 </r>
       <r>   10.3770    0.0000 </r>
       <r>   10.3771    0.0000 </r>
       <r>   11.0650    0.0000 </r>
       <r>   11.0651    0.0000 </r>
       <r>   11.0883    0.0000 </r>
       <r>   11.0883    0.0000 </r>
       <r>   11.1825    0.0000 </r>
       <r>   11.1825    0.0000 </r>
       <r>   12.3383    0.0000 </r>
       <r>   12.3383    0.0000 </r>
       <r>   12.3588    0.0000 </r>
       <r>   12.3588    0.0000 </r>
       <r>   12.5432    0.0000 </r>
       <r>   12.5432    0.0000 </r>
       <r>   12.6065    0.0000 </r>
       <r>   12.6065    0.0000 </r>
       <r>   13.0391    0.0000 </r>
       <r>   13.0391    0.0000 </r>
       <r>   13.1094    0.0000 </r>
       <r>   13.1094    0.0000 </r>
       <r>   13.1578    0.0000 </r>
       <r>   13.1578    0.0000 </r>
       <r>   14.0377    0.0000 </r>
       <r>   14.0377    0.0000 </r>
       <r>   14.0657    0.0000 </r>
       <r>   14.0657    0.0000 </r>
       <r>   14.5316    0.0000 </r>
       <r>   14.5317    0.0000 </r>
       <r>   15.0809    0.0000 </r>
       <r>   15.0809    0.0000 </r>
       <r>   15.1429    0.0000 </r>
       <r>   15.1429    0.0000 </r>
       <r>   15.5081    0.0000 </r>
       <r>   15.5082    0.0000 </r>
       <r>   17.2571    0.0000 </r>
       <r>   17.2571    0.0000 </r>
       <r>   17.3341    0.0000 </r>
       <r>   17.3341    0.0000 </r>
       <r>   17.6165    0.0000 </r>
       <r>   17.6165    0.0000 </r>
       <r>   18.5050    0.0000 </r>
       <r>   18.5050    0.0000 </r>
       <r>   18.8742    0.0000 </r>
       <r>   18.8742    0.0000 </r>
       <r>   18.8966    0.0000 </r>
       <r>   18.8966    0.0000 </r>
       <r>   20.0120    0.0000 </r>
       <r>   20.1104    0.0000 </r>
      </set>
      <set comment="kpoint 5">
       <r>   -7.5684    1.0000 </r>
       <r>   -7.5684    1.0000 </r>
       <r>   -7.1442    1.0000 </r>
       <r>   -7.1442    1.0000 </r>
       <r>   -5.4685    1.0000 </r>
       <r>   -5.4685    1.0000 </r>
       <r>   -3.8715    1.0000 </r>
       <r>   -3.8715    1.0000 </r>
       <r>   -2.3871    1.0000 </r>
       <r>   -2.3871    1.0000 </r>
       <r>    2.5117    1.0000 </r>
       <r>    2.5117    1.0000 </r>
       <r>    3.1924    1.0000 </r>
       <r>    3.1924    1.0000 </r>
       <r>    3.5565    1.0000 </r>
       <r>    3.5565    1.0000 </r>
       <r>    3.8020    1.0000 </r>
       <r>    3.8020    1.0000 </r>
       <r>    4.0615    1.0000 </r>
       <r>    4.0615    1.0000 </r>
       <r>    4.2926    1.0000 </r>
       <r>    4.2927    1.0000 </r>
       <r>    4.3571    1.0000 </r>
       <r>    4.3571    1.0000 </r>
       <r>    4.7190    1.0000 </r>
       <r>    4.7190    1.0000 </r>
       <r>    5.1959    1.0000 </r>
       <r>    5.1959    1.0000 </r>
       <r>    5.5233    0.0000 </r>
       <r>    5.5233    0.0000 </r>
       <r>    6.2117    0.0000 </r>
       <r>    6.2117    0.0000 </r>
       <r>    6.6245    0.0000 </r>
       <r>    6.6245    0.0000 </r>
       <r>    6.9719    0.0000 </r>
       <r>    6.9719    0.0000 </r>
       <r>    7.7624    0.0000 </r>
       <r>    7.7625    0.0000 </r>
       <r>    7.9263    0.0000 </r>
       <r>    7.9263    0.0000 </r>
       <r>   10.3614    0.0000 </r>
       <r>   10.3614    0.0000 </r>
       <r>   11.0612    0.0000 </r>
       <r>   11.0612    0.0000 </r>
       <r>   11.1101    0.0000 </r>
       <r>   11.1101    0.0000 </r>
       <r>   11.1596    0.0000 </r>
       <r>   11.1596    0.0000 </r>
       <r>   12.4133    0.0000 </r>
       <r>   12.4134    0.0000 </r>
       <r>   12.4365    0.0000 </r>
       <r>   12.4366    0.0000 </r>
       <r>   12.5006    0.0000 </r>
       <r>   12.5007    0.0000 </r>
       <r>   12.6732    0.0000 </r>
       <r>   12.6732    0.0000 </r>
       <r>   13.0643    0.0000 </r>
       <r>   13.0643    0.0000 </r>
       <r>   13.1694    0.0000 </r>
       <r>   13.1694    0.0000 </r>
       <r>   13.2174    0.0000 </r>
       <r>   13.2175    0.0000 </r>
       <r>   13.9033    0.0000 </r>
       <r>   13.9033    0.0000 </r>
       <r>   13.9461    0.0000 </r>
       <r>   13.9461    0.0000 </r>
       <r>   14.4193    0.0000 </r>
       <r>   14.4193    0.0000 </r>
       <r>   14.9414    0.0000 </r>
       <r>   14.9414    0.0000 </r>
       <r>   14.9968    0.0000 </r>
       <r>   14.9968    0.0000 </r>
       <r>   15.6684    0.0000 </r>
       <r>   15.6684    0.0000 </r>
       <r>   17.4129    0.0000 </r>
       <r>   17.4130    0.0000 </r>
       <r>   17.5131    0.0000 </r>
       <r>   17.5131    0.0000 </r>
       <r>   17.7311    0.0000 </r>
       <r>   17.7311    0.0000 </r>
       <r>   18.6522    0.0000 </r>
       <r>   18.6522    0.0000 </r>
       <r>   18.7364    0.0000 </r>
       <r>   18.7365    0.0000 </r>
       <r>   19.0701    0.0000 </r>
       <r>   19.0704    0.0000 </r>
       <r>   19.8784    0.0000 </r>
       <r>   19.9290    0.0000 </r>
      </set>
      <set comment="kpoint 6">
       <r>   -7.5905    1.0000 </r>
       <r>   -7.5905    1.0000 </r>
       <r>   -7.0864    1.0000 </r>
       <r>   -7.0864    1.0000 </r>
       <r>   -5.5471    1.0000 </r>
       <r>   -5.5471    1.0000 </r>
       <r>   -3.7485    1.0000 </r>
       <r>   -3.7485    1.0000 </r>
       <r>   -2.4780    1.0000 </r>
       <r>   -2.4780    1.0000 </r>
       <r>    2.5553    1.0000 </r>
       <r>    2.5553    1.0000 </r>
       <r>    3.0833    1.0000 </r>
       <r>    3.0833    1.0000 </r>
       <r>    3.5798    1.0000 </r>
       <r>    3.5798    1.0000 </r>
       <r>    3.8132    1.0000 </r>
       <r>    3.8132    1.0000 </r>
       <r>    4.0768    1.0000 </r>
       <r>    4.0768    1.0000 </r>
       <r>    4.1943    1.0000 </r>
       <r>    4.1943    1.0000 </r>
       <r>    4.4167    1.0000 </r>
       <r>    4.4167    1.0000 </r>
       <r>    4.7160    1.0000 </r>
       <r>    4.7160    1.0000 </r>
       <r>    5.1873    1.0000 </r>
       <r>    5.1873    1.0000 </r>
       <r>    5.5342    0.0000 </r>
       <r>    5.5342    0.0000 </r>
       <r>    6.2486    0.0000 </r>
       <r>    6.2486    0.0000 </r>
       <r>    6.5697    0.0000 </r>
       <r>    6.5697    0.0000 </r>
       <r>    6.9405    0.0000 </r>
       <r>    6.9405    0.0000 </r>
       <r>    7.8070    0.0000 </r>
       <r>    7.8070    0.0000 </r>
       <r>    8.0318    0.0000 </r>
       <r>    8.0318    0.0000 </r>
       <r>   10.3887    0.0000 </r>
       <r>   10.3887    0.0000 </r>
       <r>   10.9846    0.0000 </r>
       <r>   10.9846    0.0000 </r>
       <r>   11.1246    0.0000 </r>
       <r>   11.1246    0.0000 </r>
       <r>   11.2347    0.0000 </r>
       <r>   11.2347    0.0000 </r>
       <r>   12.1514    0.0000 </r>
       <r>   12.1514    0.0000 </r>
       <r>   12.3429    0.0000 </r>
       <r>   12.3429    0.0000 </r>
       <r>   12.4836    0.0000 </r>
       <r>   12.4836    0.0000 </r>
       <r>   12.6812    0.0000 </r>
       <r>   12.6813    0.0000 </r>
       <r>   12.9184    0.0000 </r>
       <r>   12.9184    0.0000 </r>
       <r>   13.1484    0.0000 </r>
       <r>   13.1484    0.0000 </r>
       <r>   13.2314    0.0000 </r>
       <r>   13.2315    0.0000 </r>
       <r>   14.0450    0.0000 </r>
       <r>   14.0450    0.0000 </r>
       <r>   14.3507    0.0000 </r>
       <r>   14.3507    0.0000 </r>
       <r>   14.5753    0.0000 </r>
       <r>   14.5753    0.0000 </r>
       <r>   15.0821    0.0000 </r>
       <r>   15.0822    0.0000 </r>
       <r>   15.3173    0.0000 </r>
       <r>   15.3173    0.0000 </r>
       <r>   15.5476    0.0000 </r>
       <r>   15.5476    0.0000 </r>
       <r>   16.9522    0.0000 </r>
       <r>   16.9523    0.0000 </r>
       <r>   17.2320    0.0000 </r>
       <r>   17.2321    0.0000 </r>
       <r>   17.6102    0.0000 </r>
       <r>   17.6102    0.0000 </r>
       <r>   18.2405    0.0000 </r>
       <r>   18.2406    0.0000 </r>
       <r>   18.7272    0.0000 </r>
       <r>   18.7273    0.0000 </r>
       <r>   19.1343    0.0000 </r>
       <r>   19.1344    0.0000 </r>
       <r>   20.0057    0.0000 </r>
       <r>   20.0933    0.0000 </r>
      </set>
      <set comment="kpoint 7">
       <r>   -7.5938    1.0000 </r>
       <r>   -7.5938    1.0000 </r>
       <r>   -7.0895    1.0000 </r>
       <r>   -7.0895    1.0000 </r>
       <r>   -5.5489    1.0000 </r>
       <r>   -5.5489    1.0000 </r>
       <r>   -3.7475    1.0000 </r>
       <r>   -3.7475    1.0000 </r>
       <r>   -2.4722    1.0000 </r>
       <r>   -2.4722    1.0000 </r>
       <r>    2.5596    1.0000 </r>
       <r>    2.5597    1.0000 </r>
       <r>    3.1157    1.0000 </r>
       <r>    3.1157    1.0000 </r>
       <r>    3.5836    1.0000 </r>
       <r>    3.5836    1.0000 </r>
       <r>    3.8339    1.0000 </r>
       <r>    3.8339    1.0000 </r>
       <r>    4.0742    1.0000 </r>
       <r>    4.0742    1.0000 </r>
       <r>    4.2402    1.0000 </r>
       <r>    4.2402    1.0000 </r>
       <r>    4.3558    1.0000 </r>
       <r>    4.3558    1.0000 </r>
       <r>    4.7509    1.0000 </r>
       <r>    4.7509    1.0000 </r>
       <r>    5.1714    1.0000 </r>
       <r>    5.1714    1.0000 </r>
       <r>    5.5180    0.0000 </r>
       <r>    5.5180    0.0000 </r>
       <r>    6.2639    0.0000 </r>
       <r>    6.2639    0.0000 </r>
       <r>    6.5593    0.0000 </r>
       <r>    6.5593    0.0000 </r>
       <r>    6.9052    0.0000 </r>
       <r>    6.9052    0.0000 </r>
       <r>    7.8129    0.0000 </r>
       <r>    7.8129    0.0000 </r>
       <r>    8.0174    0.0000 </r>
       <r>    8.0174    0.0000 </r>
       <r>   10.3920    0.0000 </r>
       <r>   10.3920    0.0000 </r>
       <r>   11.0139    0.0000 </r>
       <r>   11.0140    0.0000 </r>
       <r>   11.1198    0.0000 </r>
       <r>   11.1198    0.0000 </r>
       <r>   11.2174    0.0000 </r>
       <r>   11.2174    0.0000 </r>
       <r>   12.2050    0.0000 </r>
       <r>   12.2050    0.0000 </r>
       <r>   12.3163    0.0000 </r>
       <r>   12.3163    0.0000 </r>
       <r>   12.4689    0.0000 </r>
       <r>   12.4690    0.0000 </r>
       <r>   12.6793    0.0000 </r>
       <r>   12.6793    0.0000 </r>
       <r>   12.9370    0.0000 </r>
       <r>   12.9370    0.0000 </r>
       <r>   13.0653    0.0000 </r>
       <r>   13.0654    0.0000 </r>
       <r>   13.2176    0.0000 </r>
       <r>   13.2177    0.0000 </r>
       <r>   14.1059    0.0000 </r>
       <r>   14.1059    0.0000 </r>
       <r>   14.2658    0.0000 </r>
       <r>   14.2658    0.0000 </r>
       <r>   14.6115    0.0000 </r>
       <r>   14.6115    0.0000 </r>
       <r>   15.1293    0.0000 </r>
       <r>   15.1293    0.0000 </r>
       <r>   15.3028    0.0000 </r>
       <r>   15.3028    0.0000 </r>
       <r>   15.4579    0.0000 </r>
       <r>   15.4580    0.0000 </r>
       <r>   17.0406    0.0000 </r>
       <r>   17.0406    0.0000 </r>
       <r>   17.1987    0.0000 </r>
       <r>   17.1987    0.0000 </r>
       <r>   17.5353    0.0000 </r>
       <r>   17.5353    0.0000 </r>
       <r>   18.2947    0.0000 </r>
       <r>   18.2947    0.0000 </r>
       <r>   18.6931    0.0000 </r>
       <r>   18.6932    0.0000 </r>
       <r>   19.1218    0.0000 </r>
       <r>   19.1221    0.0000 </r>
       <r>   19.9808    0.0000 </r>
       <r>   20.0068    0.0000 </r>
      </set>
      <set comment="kpoint 8">
       <r>   -7.5938    1.0000 </r>
       <r>   -7.5938    1.0000 </r>
       <r>   -7.0895    1.0000 </r>
       <r>   -7.0895    1.0000 </r>
       <r>   -5.5489    1.0000 </r>
       <r>   -5.5489    1.0000 </r>
       <r>   -3.7475    1.0000 </r>
       <r>   -3.7475    1.0000 </r>
       <r>   -2.4722    1.0000 </r>
       <r>   -2.4722    1.0000 </r>
       <r>    2.5596    1.0000 </r>
       <r>    2.5597    1.0000 </r>
       <r>    3.1157    1.0000 </r>
       <r>    3.1157    1.0000 </r>
       <r>    3.5836    1.0000 </r>
       <r>    3.5836    1.0000 </r>
       <r>    3.8339    1.0000 </r>
       <r>    3.8339    1.0000 </r>
       <r>    4.0742    1.0000 </r>
       <r>    4.0742    1.0000 </r>
       <r>    4.2402    1.0000 </r>
       <r>    4.2402    1.0000 </r>
       <r>    4.3558    1.0000 </r>
       <r>    4.3558    1.0000 </r>
       <r>    4.7509    1.0000 </r>
       <r>    4.7509    1.0000 </r>
       <r>    5.1714    1.0000 </r>
       <r>    5.1714    1.0000 </r>
       <r>    5.5180    0.0000 </r>
       <r>    5.5180    0.0000 </r>
       <r>    6.2639    0.0000 </r>
       <r>    6.2639    0.0000 </r>
       <r>    6.5593    0.0000 </r>
       <r>    6.5593    0.0000 </r>
       <r>    6.9052    0.0000 </r>
       <r>    6.9052    0.0000 </r>
       <r>    7.8129    0.0000 </r>
       <r>    7.8129    0.0000 </r>
       <r>    8.0174    0.0000 </r>
       <r>    8.0174    0.0000 </r>
       <r>   10.3920    0.0000 </r>
       <r>   10.3920    0.0000 </r>
       <r>   11.0139    0.0000 </r>
       <r>   11.0140    0.0000 </r>
       <r>   11.1198    0.0000 </r>
       <r>   11.1198    0.0000 </r>
       <r>   11.2174    0.0000 </r>
       <r>   11.2174    0.0000 </r>
       <r>   12.2050    0.0000 </r>
       <r>   12.2050    0.0000 </r>
       <r>   12.3163    0.0000 </r>
       <r>   12.3163    0.0000 </r>
       <r>   12.4689    0.0000 </r>
       <r>   12.4690    0.0000 </r>
       <r>   12.6793    0.0000 </r>
       <r>   12.6793    0.0000 </r>
       <r>   12.9370    0.0000 </r>
       <r>   12.9370    0.0000 </r>
       <r>   13.0653    0.0000 </r>
       <r>   13.0654    0.0000 </r>
       <r>   13.2176    0.0000 </r>
       <r>   13.2177    0.0000 </r>
       <r>   14.1059    0.0000 </r>
       <r>   14.1059    0.0000 </r>
       <r>   14.2658    0.0000 </r>
       <r>   14.2658    0.0000 </r>
       <r>   14.6115    0.0000 </r>
       <r>   14.6115    0.0000 </r>
       <r>   15.1293    0.0000 </r>
       <r>   15.1293    0.0000 </r>
       <r>   15.3028    0.0000 </r>
       <r>   15.3028    0.0000 </r>
       <r>   15.4579    0.0000 </r>
       <r>   15.4580    0.0000 </r>
       <r>   17.0406    0.0000 </r>
       <r>   17.0406    0.0000 </r>
       <r>   17.1987    0.0000 </r>
       <r>   17.1987    0.0000 </r>
       <r>   17.5353    0.0000 </r>
       <r>   17.5353    0.0000 </r>
       <r>   18.2947    0.0000 </r>
       <r>   18.2947    0.0000 </r>
       <r>   18.6931    0.0000 </r>
       <r>   18.6931    0.0000 </r>
       <r>   19.1218    0.0000 </r>
       <r>   19.1219    0.0000 </r>
       <r>   19.9877    0.0000 </r>
       <r>   20.0131    0.0000 </r>
      </set>
      <set comment="kpoint 9">
       <r>   -7.5905    1.0000 </r>
       <r>   -7.5905    1.0000 </r>
       <r>   -7.0864    1.0000 </r>
       <r>   -7.0864    1.0000 </r>
       <r>   -5.5471    1.0000 </r>
       <r>   -5.5471    1.0000 </r>
       <r>   -3.7485    1.0000 </r>
       <r>   -3.7485    1.0000 </r>
       <r>   -2.4780    1.0000 </r>
       <r>   -2.4780    1.0000 </r>
       <r>    2.5553    1.0000 </r>
       <r>    2.5553    1.0000 </r>
       <r>    3.0833    1.0000 </r>
       <r>    3.0833    1.0000 </r>
       <r>    3.5798    1.0000 </r>
       <r>    3.5798    1.0000 </r>
       <r>    3.8132    1.0000 </r>
       <r>    3.8132    1.0000 </r>
       <r>    4.0768    1.0000 </r>
       <r>    4.0768    1.0000 </r>
       <r>    4.1943    1.0000 </r>
       <r>    4.1943    1.0000 </r>
       <r>    4.4167    1.0000 </r>
       <r>    4.4167    1.0000 </r>
       <r>    4.7160    1.0000 </r>
       <r>    4.7160    1.0000 </r>
       <r>    5.1873    1.0000 </r>
       <r>    5.1873    1.0000 </r>
       <r>    5.5342    0.0000 </r>
       <r>    5.5342    0.0000 </r>
       <r>    6.2486    0.0000 </r>
       <r>    6.2486    0.0000 </r>
       <r>    6.5696    0.0000 </r>
       <r>    6.5697    0.0000 </r>
       <r>    6.9405    0.0000 </r>
       <r>    6.9405    0.0000 </r>
       <r>    7.8070    0.0000 </r>
       <r>    7.8070    0.0000 </r>
       <r>    8.0318    0.0000 </r>
       <r>    8.0318    0.0000 </r>
       <r>   10.3887    0.0000 </r>
       <r>   10.3887    0.0000 </r>
       <r>   10.9846    0.0000 </r>
       <r>   10.9846    0.0000 </r>
       <r>   11.1246    0.0000 </r>
       <r>   11.1246    0.0000 </r>
       <r>   11.2347    0.0000 </r>
       <r>   11.2347    0.0000 </r>
       <r>   12.1514    0.0000 </r>
       <r>   12.1514    0.0000 </r>
       <r>   12.3429    0.0000 </r>
       <r>   12.3429    0.0000 </r>
       <r>   12.4836    0.0000 </r>
       <r>   12.4837    0.0000 </r>
       <r>   12.6812    0.0000 </r>
       <r>   12.6813    0.0000 </r>
       <r>   12.9184    0.0000 </r>
       <r>   12.9184    0.0000 </r>
       <r>   13.1484    0.0000 </r>
       <r>   13.1484    0.0000 </r>
       <r>   13.2314    0.0000 </r>
       <r>   13.2315    0.0000 </r>
       <r>   14.0450    0.0000 </r>
       <r>   14.0450    0.0000 </r>
       <r>   14.3507    0.0000 </r>
       <r>   14.3507    0.0000 </r>
       <r>   14.5753    0.0000 </r>
       <r>   14.5753    0.0000 </r>
       <r>   15.0821    0.0000 </r>
       <r>   15.0822    0.0000 </r>
       <r>   15.3173    0.0000 </r>
       <r>   15.3173    0.0000 </r>
       <r>   15.5476    0.0000 </r>
       <r>   15.5476    0.0000 </r>
       <r>   16.9522    0.0000 </r>
       <r>   16.9523    0.0000 </r>
       <r>   17.2320    0.0000 </r>
       <r>   17.2321    0.0000 </r>
       <r>   17.6102    0.0000 </r>
       <r>   17.6102    0.0000 </r>
       <r>   18.2405    0.0000 </r>
       <r>   18.2406    0.0000 </r>
       <r>   18.7272    0.0000 </r>
       <r>   18.7273    0.0000 </r>
       <r>   19.1343    0.0000 </r>
       <r>   19.1344    0.0000 </r>
       <r>   20.0003    0.0000 </r>
       <r>   20.0834    0.0000 </r>
      </set>
      <set comment="kpoint 10">
       <r>   -7.5936    1.0000 </r>
       <r>   -7.5936    1.0000 </r>
       <r>   -7.0797    1.0000 </r>
       <r>   -7.0797    1.0000 </r>
       <r>   -5.5573    1.0000 </r>
       <r>   -5.5573    1.0000 </r>
       <r>   -3.7320    1.0000 </r>
       <r>   -3.7319    1.0000 </r>
       <r>   -2.4896    1.0000 </r>
       <r>   -2.4896    1.0000 </r>
       <r>    2.5623    1.0000 </r>
       <r>    2.5623    1.0000 </r>
       <r>    3.0789    1.0000 </r>
       <r>    3.0789    1.0000 </r>
       <r>    3.5814    1.0000 </r>
       <r>    3.5814    1.0000 </r>
       <r>    3.8120    1.0000 </r>
       <r>    3.8120    1.0000 </r>
       <r>    4.0785    1.0000 </r>
       <r>    4.0785    1.0000 </r>
       <r>    4.1870    1.0000 </r>
       <r>    4.1871    1.0000 </r>
       <r>    4.4166    1.0000 </r>
       <r>    4.4166    1.0000 </r>
       <r>    4.7271    1.0000 </r>
       <r>    4.7271    1.0000 </r>
       <r>    5.1942    1.0000 </r>
       <r>    5.1942    1.0000 </r>
       <r>    5.5217    0.0000 </r>
       <r>    5.5217    0.0000 </r>
       <r>    6.2562    0.0000 </r>
       <r>    6.2562    0.0000 </r>
       <r>    6.5508    0.0000 </r>
       <r>    6.5508    0.0000 </r>
       <r>    6.9389    0.0000 </r>
       <r>    6.9389    0.0000 </r>
       <r>    7.8141    0.0000 </r>
       <r>    7.8141    0.0000 </r>
       <r>    8.0423    0.0000 </r>
       <r>    8.0424    0.0000 </r>
       <r>   10.3938    0.0000 </r>
       <r>   10.3938    0.0000 </r>
       <r>   10.9799    0.0000 </r>
       <r>   10.9799    0.0000 </r>
       <r>   11.1254    0.0000 </r>
       <r>   11.1255    0.0000 </r>
       <r>   11.2427    0.0000 </r>
       <r>   11.2427    0.0000 </r>
       <r>   12.1310    0.0000 </r>
       <r>   12.1310    0.0000 </r>
       <r>   12.3368    0.0000 </r>
       <r>   12.3368    0.0000 </r>
       <r>   12.4517    0.0000 </r>
       <r>   12.4517    0.0000 </r>
       <r>   12.7103    0.0000 </r>
       <r>   12.7103    0.0000 </r>
       <r>   12.8631    0.0000 </r>
       <r>   12.8631    0.0000 </r>
       <r>   13.1534    0.0000 </r>
       <r>   13.1534    0.0000 </r>
       <r>   13.2515    0.0000 </r>
       <r>   13.2515    0.0000 </r>
       <r>   14.0601    0.0000 </r>
       <r>   14.0602    0.0000 </r>
       <r>   14.3889    0.0000 </r>
       <r>   14.3889    0.0000 </r>
       <r>   14.5924    0.0000 </r>
       <r>   14.5925    0.0000 </r>
       <r>   15.0973    0.0000 </r>
       <r>   15.0973    0.0000 </r>
       <r>   15.3562    0.0000 </r>
       <r>   15.3562    0.0000 </r>
       <r>   15.5341    0.0000 </r>
       <r>   15.5341    0.0000 </r>
       <r>   16.8987    0.0000 </r>
       <r>   16.8987    0.0000 </r>
       <r>   17.2395    0.0000 </r>
       <r>   17.2395    0.0000 </r>
       <r>   17.5530    0.0000 </r>
       <r>   17.5530    0.0000 </r>
       <r>   18.2059    0.0000 </r>
       <r>   18.2059    0.0000 </r>
       <r>   18.6604    0.0000 </r>
       <r>   18.6604    0.0000 </r>
       <r>   19.1920    0.0000 </r>
       <r>   19.1926    0.0000 </r>
       <r>   19.9750    0.0000 </r>
       <r>   20.0250    0.0000 </r>
      </set>
      <set comment="kpoint 11">
       <r>   -7.5954    1.0000 </r>
       <r>   -7.5954    1.0000 </r>
       <r>   -7.0862    1.0000 </r>
       <r>   -7.0861    1.0000 </r>
       <r>   -5.5541    1.0000 </r>
       <r>   -5.5541    1.0000 </r>
       <r>   -3.7393    1.0000 </r>
       <r>   -3.7392    1.0000 </r>
       <r>   -2.4780    1.0000 </r>
       <r>   -2.4780    1.0000 </r>
       <r>    2.5631    1.0000 </r>
       <r>    2.5631    1.0000 </r>
       <r>    3.1121    1.0000 </r>
       <r>    3.1121    1.0000 </r>
       <r>    3.5851    1.0000 </r>
       <r>    3.5851    1.0000 </r>
       <r>    3.8353    1.0000 </r>
       <r>    3.8353    1.0000 </r>
       <r>    4.0750    1.0000 </r>
       <r>    4.0750    1.0000 </r>
       <r>    4.2383    1.0000 </r>
       <r>    4.2383    1.0000 </r>
       <r>    4.3543    1.0000 </r>
       <r>    4.3543    1.0000 </r>
       <r>    4.7545    1.0000 </r>
       <r>    4.7545    1.0000 </r>
       <r>    5.1702    1.0000 </r>
       <r>    5.1702    1.0000 </r>
       <r>    5.5165    0.0000 </r>
       <r>    5.5165    0.0000 </r>
       <r>    6.2676    0.0000 </r>
       <r>    6.2676    0.0000 </r>
       <r>    6.5534    0.0000 </r>
       <r>    6.5534    0.0000 </r>
       <r>    6.9015    0.0000 </r>
       <r>    6.9016    0.0000 </r>
       <r>    7.8163    0.0000 </r>
       <r>    7.8163    0.0000 </r>
       <r>    8.0226    0.0000 </r>
       <r>    8.0226    0.0000 </r>
       <r>   10.3942    0.0000 </r>
       <r>   10.3942    0.0000 </r>
       <r>   11.0105    0.0000 </r>
       <r>   11.0105    0.0000 </r>
       <r>   11.1222    0.0000 </r>
       <r>   11.1222    0.0000 </r>
       <r>   11.2213    0.0000 </r>
       <r>   11.2214    0.0000 </r>
       <r>   12.1944    0.0000 </r>
       <r>   12.1944    0.0000 </r>
       <r>   12.3075    0.0000 </r>
       <r>   12.3076    0.0000 </r>
       <r>   12.4561    0.0000 </r>
       <r>   12.4562    0.0000 </r>
       <r>   12.6927    0.0000 </r>
       <r>   12.6927    0.0000 </r>
       <r>   12.9172    0.0000 </r>
       <r>   12.9172    0.0000 </r>
       <r>   13.0616    0.0000 </r>
       <r>   13.0616    0.0000 </r>
       <r>   13.2272    0.0000 </r>
       <r>   13.2273    0.0000 </r>
       <r>   14.1184    0.0000 </r>
       <r>   14.1184    0.0000 </r>
       <r>   14.2848    0.0000 </r>
       <r>   14.2848    0.0000 </r>
       <r>   14.6205    0.0000 </r>
       <r>   14.6205    0.0000 </r>
       <r>   15.1338    0.0000 </r>
       <r>   15.1339    0.0000 </r>
       <r>   15.3208    0.0000 </r>
       <r>   15.3208    0.0000 </r>
       <r>   15.4547    0.0000 </r>
       <r>   15.4548    0.0000 </r>
       <r>   17.0148    0.0000 </r>
       <r>   17.0148    0.0000 </r>
       <r>   17.1896    0.0000 </r>
       <r>   17.1896    0.0000 </r>
       <r>   17.5168    0.0000 </r>
       <r>   17.5168    0.0000 </r>
       <r>   18.2731    0.0000 </r>
       <r>   18.2731    0.0000 </r>
       <r>   18.6657    0.0000 </r>
       <r>   18.6657    0.0000 </r>
       <r>   19.1504    0.0000 </r>
       <r>   19.1506    0.0000 </r>
       <r>   19.9872    0.0000 </r>
       <r>   19.9979    0.0000 </r>
      </set>
      <set comment="kpoint 12">
       <r>   -7.5923    1.0000 </r>
       <r>   -7.5923    1.0000 </r>
       <r>   -7.0929    1.0000 </r>
       <r>   -7.0929    1.0000 </r>
       <r>   -5.5438    1.0000 </r>
       <r>   -5.5438    1.0000 </r>
       <r>   -3.7557    1.0000 </r>
       <r>   -3.7557    1.0000 </r>
       <r>   -2.4664    1.0000 </r>
       <r>   -2.4664    1.0000 </r>
       <r>    2.5563    1.0000 </r>
       <r>    2.5563    1.0000 </r>
       <r>    3.1197    1.0000 </r>
       <r>    3.1197    1.0000 </r>
       <r>    3.5821    1.0000 </r>
       <r>    3.5821    1.0000 </r>
       <r>    3.8327    1.0000 </r>
       <r>    3.8327    1.0000 </r>
       <r>    4.0733    1.0000 </r>
       <r>    4.0733    1.0000 </r>
       <r>    4.2430    1.0000 </r>
       <r>    4.2430    1.0000 </r>
       <r>    4.3565    1.0000 </r>
       <r>    4.3565    1.0000 </r>
       <r>    4.7476    1.0000 </r>
       <r>    4.7476    1.0000 </r>
       <r>    5.1724    1.0000 </r>
       <r>    5.1724    1.0000 </r>
       <r>    5.5194    0.0000 </r>
       <r>    5.5194    0.0000 </r>
       <r>    6.2604    0.0000 </r>
       <r>    6.2604    0.0000 </r>
       <r>    6.5651    0.0000 </r>
       <r>    6.5651    0.0000 </r>
       <r>    6.9085    0.0000 </r>
       <r>    6.9085    0.0000 </r>
       <r>    7.8095    0.0000 </r>
       <r>    7.8096    0.0000 </r>
       <r>    8.0121    0.0000 </r>
       <r>    8.0121    0.0000 </r>
       <r>   10.3899    0.0000 </r>
       <r>   10.3899    0.0000 </r>
       <r>   11.0176    0.0000 </r>
       <r>   11.0177    0.0000 </r>
       <r>   11.1176    0.0000 </r>
       <r>   11.1176    0.0000 </r>
       <r>   11.2133    0.0000 </r>
       <r>   11.2133    0.0000 </r>
       <r>   12.2165    0.0000 </r>
       <r>   12.2165    0.0000 </r>
       <r>   12.3246    0.0000 </r>
       <r>   12.3247    0.0000 </r>
       <r>   12.4814    0.0000 </r>
       <r>   12.4814    0.0000 </r>
       <r>   12.6662    0.0000 </r>
       <r>   12.6662    0.0000 </r>
       <r>   12.9586    0.0000 </r>
       <r>   12.9586    0.0000 </r>
       <r>   13.0668    0.0000 </r>
       <r>   13.0668    0.0000 </r>
       <r>   13.2081    0.0000 </r>
       <r>   13.2081    0.0000 </r>
       <r>   14.0948    0.0000 </r>
       <r>   14.0948    0.0000 </r>
       <r>   14.2451    0.0000 </r>
       <r>   14.2452    0.0000 </r>
       <r>   14.6027    0.0000 </r>
       <r>   14.6028    0.0000 </r>
       <r>   15.1206    0.0000 </r>
       <r>   15.1207    0.0000 </r>
       <r>   15.2886    0.0000 </r>
       <r>   15.2886    0.0000 </r>
       <r>   15.4608    0.0000 </r>
       <r>   15.4609    0.0000 </r>
       <r>   17.0696    0.0000 </r>
       <r>   17.0696    0.0000 </r>
       <r>   17.2053    0.0000 </r>
       <r>   17.2053    0.0000 </r>
       <r>   17.5534    0.0000 </r>
       <r>   17.5534    0.0000 </r>
       <r>   18.3169    0.0000 </r>
       <r>   18.3169    0.0000 </r>
       <r>   18.7202    0.0000 </r>
       <r>   18.7202    0.0000 </r>
       <r>   19.0932    0.0000 </r>
       <r>   19.0933    0.0000 </r>
       <r>   19.9788    0.0000 </r>
       <r>   20.0211    0.0000 </r>
      </set>
      <set comment="kpoint 13">
       <r>   -7.5874    1.0000 </r>
       <r>   -7.5874    1.0000 </r>
       <r>   -7.0933    1.0000 </r>
       <r>   -7.0933    1.0000 </r>
       <r>   -5.5368    1.0000 </r>
       <r>   -5.5368    1.0000 </r>
       <r>   -3.7649    1.0000 </r>
       <r>   -3.7649    1.0000 </r>
       <r>   -2.4665    1.0000 </r>
       <r>   -2.4665    1.0000 </r>
       <r>    2.5486    1.0000 </r>
       <r>    2.5486    1.0000 </r>
       <r>    3.0889    1.0000 </r>
       <r>    3.0889    1.0000 </r>
       <r>    3.5783    1.0000 </r>
       <r>    3.5783    1.0000 </r>
       <r>    3.8154    1.0000 </r>
       <r>    3.8154    1.0000 </r>
       <r>    4.0749    1.0000 </r>
       <r>    4.0750    1.0000 </r>
       <r>    4.2029    1.0000 </r>
       <r>    4.2029    1.0000 </r>
       <r>    4.4152    1.0000 </r>
       <r>    4.4152    1.0000 </r>
       <r>    4.7057    1.0000 </r>
       <r>    4.7058    1.0000 </r>
       <r>    5.1808    1.0000 </r>
       <r>    5.1808    1.0000 </r>
       <r>    5.5454    0.0000 </r>
       <r>    5.5454    0.0000 </r>
       <r>    6.2416    0.0000 </r>
       <r>    6.2416    0.0000 </r>
       <r>    6.5885    0.0000 </r>
       <r>    6.5885    0.0000 </r>
       <r>    6.9403    0.0000 </r>
       <r>    6.9403    0.0000 </r>
       <r>    7.7997    0.0000 </r>
       <r>    7.7997    0.0000 </r>
       <r>    8.0208    0.0000 </r>
       <r>    8.0208    0.0000 </r>
       <r>   10.3837    0.0000 </r>
       <r>   10.3838    0.0000 </r>
       <r>   10.9895    0.0000 </r>
       <r>   10.9895    0.0000 </r>
       <r>   11.1253    0.0000 </r>
       <r>   11.1254    0.0000 </r>
       <r>   11.2262    0.0000 </r>
       <r>   11.2263    0.0000 </r>
       <r>   12.1729    0.0000 </r>
       <r>   12.1729    0.0000 </r>
       <r>   12.3529    0.0000 </r>
       <r>   12.3529    0.0000 </r>
       <r>   12.5100    0.0000 </r>
       <r>   12.5100    0.0000 </r>
       <r>   12.6530    0.0000 </r>
       <r>   12.6530    0.0000 </r>
       <r>   12.9844    0.0000 </r>
       <r>   12.9844    0.0000 </r>
       <r>   13.1387    0.0000 </r>
       <r>   13.1387    0.0000 </r>
       <r>   13.2045    0.0000 </r>
       <r>   13.2045    0.0000 </r>
       <r>   14.0336    0.0000 </r>
       <r>   14.0336    0.0000 </r>
       <r>   14.3064    0.0000 </r>
       <r>   14.3065    0.0000 </r>
       <r>   14.5627    0.0000 </r>
       <r>   14.5627    0.0000 </r>
       <r>   15.0415    0.0000 </r>
       <r>   15.0415    0.0000 </r>
       <r>   15.3049    0.0000 </r>
       <r>   15.3049    0.0000 </r>
       <r>   15.5551    0.0000 </r>
       <r>   15.5551    0.0000 </r>
       <r>   17.0209    0.0000 </r>
       <r>   17.0209    0.0000 </r>
       <r>   17.2148    0.0000 </r>
       <r>   17.2148    0.0000 </r>
       <r>   17.6633    0.0000 </r>
       <r>   17.6633    0.0000 </r>
       <r>   18.2775    0.0000 </r>
       <r>   18.2775    0.0000 </r>
       <r>   18.7932    0.0000 </r>
       <r>   18.7932    0.0000 </r>
       <r>   19.0762    0.0000 </r>
       <r>   19.0764    0.0000 </r>
       <r>   19.9653    0.0000 </r>
       <r>   20.0223    0.0000 </r>
      </set>
      <set comment="kpoint 14">
       <r>   -7.6128    1.0000 </r>
       <r>   -7.6128    1.0000 </r>
       <r>   -7.0346    1.0000 </r>
       <r>   -7.0346    1.0000 </r>
       <r>   -5.6245    1.0000 </r>
       <r>   -5.6245    1.0000 </r>
       <r>   -3.6160    1.0000 </r>
       <r>   -3.6160    1.0000 </r>
       <r>   -2.5749    1.0000 </r>
       <r>   -2.5749    1.0000 </r>
       <r>    2.6095    1.0000 </r>
       <r>    2.6095    1.0000 </r>
       <r>    3.0206    1.0000 </r>
       <r>    3.0206    1.0000 </r>
       <r>    3.6050    1.0000 </r>
       <r>    3.6050    1.0000 </r>
       <r>    3.8405    1.0000 </r>
       <r>    3.8405    1.0000 </r>
       <r>    4.0940    1.0000 </r>
       <r>    4.0940    1.0000 </r>
       <r>    4.1839    1.0000 </r>
       <r>    4.1839    1.0000 </r>
       <r>    4.3777    1.0000 </r>
       <r>    4.3777    1.0000 </r>
       <r>    4.7379    1.0000 </r>
       <r>    4.7379    1.0000 </r>
       <r>    5.1544    1.0000 </r>
       <r>    5.1544    1.0000 </r>
       <r>    5.5416    0.0000 </r>
       <r>    5.5416    0.0000 </r>
       <r>    6.3008    0.0000 </r>
       <r>    6.3008    0.0000 </r>
       <r>    6.5083    0.0000 </r>
       <r>    6.5083    0.0000 </r>
       <r>    6.8783    0.0000 </r>
       <r>    6.8783    0.0000 </r>
       <r>    7.8572    0.0000 </r>
       <r>    7.8572    0.0000 </r>
       <r>    8.0973    0.0000 </r>
       <r>    8.0973    0.0000 </r>
       <r>   10.4151    0.0000 </r>
       <r>   10.4152    0.0000 </r>
       <r>   10.9327    0.0000 </r>
       <r>   10.9327    0.0000 </r>
       <r>   11.1794    0.0000 </r>
       <r>   11.1795    0.0000 </r>
       <r>   11.3095    0.0000 </r>
       <r>   11.3096    0.0000 </r>
       <r>   11.9970    0.0000 </r>
       <r>   11.9970    0.0000 </r>
       <r>   12.1736    0.0000 </r>
       <r>   12.1737    0.0000 </r>
       <r>   12.3073    0.0000 </r>
       <r>   12.3073    0.0000 </r>
       <r>   12.7612    0.0000 </r>
       <r>   12.7612    0.0000 </r>
       <r>   12.8861    0.0000 </r>
       <r>   12.8861    0.0000 </r>
       <r>   13.0158    0.0000 </r>
       <r>   13.0159    0.0000 </r>
       <r>   13.3683    0.0000 </r>
       <r>   13.3684    0.0000 </r>
       <r>   14.2917    0.0000 </r>
       <r>   14.2917    0.0000 </r>
       <r>   14.5578    0.0000 </r>
       <r>   14.5578    0.0000 </r>
       <r>   14.7152    0.0000 </r>
       <r>   14.7153    0.0000 </r>
       <r>   15.0422    0.0000 </r>
       <r>   15.0422    0.0000 </r>
       <r>   15.4539    0.0000 </r>
       <r>   15.4539    0.0000 </r>
       <r>   15.7576    0.0000 </r>
       <r>   15.7576    0.0000 </r>
       <r>   16.6804    0.0000 </r>
       <r>   16.6804    0.0000 </r>
       <r>   16.9495    0.0000 </r>
       <r>   16.9495    0.0000 </r>
       <r>   17.4056    0.0000 </r>
       <r>   17.4056    0.0000 </r>
       <r>   17.8806    0.0000 </r>
       <r>   17.8806    0.0000 </r>
       <r>   18.3439    0.0000 </r>
       <r>   18.3439    0.0000 </r>
       <r>   19.5253    0.0000 </r>
       <r>   19.5264    0.0000 </r>
       <r>   19.8225    0.0000 </r>
       <r>   19.8260    0.0000 </r>
      </set>
      <set comment="kpoint 15">
       <r>   -7.6023    1.0000 </r>
       <r>   -7.6023    1.0000 </r>
       <r>   -7.0599    1.0000 </r>
       <r>   -7.0599    1.0000 </r>
       <r>   -5.5868    1.0000 </r>
       <r>   -5.5868    1.0000 </r>
       <r>   -3.6827    1.0000 </r>
       <r>   -3.6827    1.0000 </r>
       <r>   -2.5251    1.0000 </r>
       <r>   -2.5251    1.0000 </r>
       <r>    2.5816    1.0000 </r>
       <r>    2.5816    1.0000 </r>
       <r>    3.0524    1.0000 </r>
       <r>    3.0524    1.0000 </r>
       <r>    3.5925    1.0000 </r>
       <r>    3.5925    1.0000 </r>
       <r>    3.8283    1.0000 </r>
       <r>    3.8283    1.0000 </r>
       <r>    4.0851    1.0000 </r>
       <r>    4.0851    1.0000 </r>
       <r>    4.1877    1.0000 </r>
       <r>    4.1878    1.0000 </r>
       <r>    4.3970    1.0000 </r>
       <r>    4.3970    1.0000 </r>
       <r>    4.7288    1.0000 </r>
       <r>    4.7288    1.0000 </r>
       <r>    5.1704    1.0000 </r>
       <r>    5.1704    1.0000 </r>
       <r>    5.5366    0.0000 </r>
       <r>    5.5366    0.0000 </r>
       <r>    6.2760    0.0000 </r>
       <r>    6.2760    0.0000 </r>
       <r>    6.5374    0.0000 </r>
       <r>    6.5375    0.0000 </r>
       <r>    6.9085    0.0000 </r>
       <r>    6.9085    0.0000 </r>
       <r>    7.8328    0.0000 </r>
       <r>    7.8328    0.0000 </r>
       <r>    8.0660    0.0000 </r>
       <r>    8.0660    0.0000 </r>
       <r>   10.4025    0.0000 </r>
       <r>   10.4026    0.0000 </r>
       <r>   10.9570    0.0000 </r>
       <r>   10.9570    0.0000 </r>
       <r>   11.1493    0.0000 </r>
       <r>   11.1493    0.0000 </r>
       <r>   11.2702    0.0000 </r>
       <r>   11.2702    0.0000 </r>
       <r>   12.0720    0.0000 </r>
       <r>   12.0720    0.0000 </r>
       <r>   12.2551    0.0000 </r>
       <r>   12.2551    0.0000 </r>
       <r>   12.3951    0.0000 </r>
       <r>   12.3951    0.0000 </r>
       <r>   12.7772    0.0000 </r>
       <r>   12.7772    0.0000 </r>
       <r>   12.8454    0.0000 </r>
       <r>   12.8454    0.0000 </r>
       <r>   13.0780    0.0000 </r>
       <r>   13.0781    0.0000 </r>
       <r>   13.2907    0.0000 </r>
       <r>   13.2908    0.0000 </r>
       <r>   14.1700    0.0000 </r>
       <r>   14.1700    0.0000 </r>
       <r>   14.4707    0.0000 </r>
       <r>   14.4707    0.0000 </r>
       <r>   14.6629    0.0000 </r>
       <r>   14.6630    0.0000 </r>
       <r>   15.0779    0.0000 </r>
       <r>   15.0779    0.0000 </r>
       <r>   15.3563    0.0000 </r>
       <r>   15.3563    0.0000 </r>
       <r>   15.6446    0.0000 </r>
       <r>   15.6446    0.0000 </r>
       <r>   16.8085    0.0000 </r>
       <r>   16.8085    0.0000 </r>
       <r>   17.0891    0.0000 </r>
       <r>   17.0891    0.0000 </r>
       <r>   17.4953    0.0000 </r>
       <r>   17.4953    0.0000 </r>
       <r>   18.0583    0.0000 </r>
       <r>   18.0583    0.0000 </r>
       <r>   18.5337    0.0000 </r>
       <r>   18.5337    0.0000 </r>
       <r>   19.3576    0.0000 </r>
       <r>   19.3577    0.0000 </r>
       <r>   19.8957    0.0000 </r>
       <r>   19.9388    0.0000 </r>
      </set>
      <set comment="kpoint 16">
       <r>   -7.5776    1.0000 </r>
       <r>   -7.5776    1.0000 </r>
       <r>   -7.1133    1.0000 </r>
       <r>   -7.1133    1.0000 </r>
       <r>   -5.5064    1.0000 </r>
       <r>   -5.5064    1.0000 </r>
       <r>   -3.8122    1.0000 </r>
       <r>   -3.8122    1.0000 </r>
       <r>   -2.4346    1.0000 </r>
       <r>   -2.4346    1.0000 </r>
       <r>    2.5310    1.0000 </r>
       <r>    2.5310    1.0000 </r>
       <r>    3.1130    1.0000 </r>
       <r>    3.1130    1.0000 </r>
       <r>    3.5670    1.0000 </r>
       <r>    3.5670    1.0000 </r>
       <r>    3.7960    1.0000 </r>
       <r>    3.7960    1.0000 </r>
       <r>    4.0692    1.0000 </r>
       <r>    4.0692    1.0000 </r>
       <r>    4.2030    1.0000 </r>
       <r>    4.2030    1.0000 </r>
       <r>    4.4367    1.0000 </r>
       <r>    4.4367    1.0000 </r>
       <r>    4.7003    1.0000 </r>
       <r>    4.7003    1.0000 </r>
       <r>    5.2038    1.0000 </r>
       <r>    5.2038    1.0000 </r>
       <r>    5.5352    0.0000 </r>
       <r>    5.5352    0.0000 </r>
       <r>    6.2191    0.0000 </r>
       <r>    6.2191    0.0000 </r>
       <r>    6.6037    0.0000 </r>
       <r>    6.6037    0.0000 </r>
       <r>    6.9734    0.0000 </r>
       <r>    6.9734    0.0000 </r>
       <r>    7.7808    0.0000 </r>
       <r>    7.7808    0.0000 </r>
       <r>    7.9956    0.0000 </r>
       <r>    7.9956    0.0000 </r>
       <r>   10.3746    0.0000 </r>
       <r>   10.3747    0.0000 </r>
       <r>   11.0078    0.0000 </r>
       <r>   11.0079    0.0000 </r>
       <r>   11.1120    0.0000 </r>
       <r>   11.1121    0.0000 </r>
       <r>   11.2041    0.0000 </r>
       <r>   11.2041    0.0000 </r>
       <r>   12.2343    0.0000 </r>
       <r>   12.2343    0.0000 </r>
       <r>   12.4343    0.0000 </r>
       <r>   12.4343    0.0000 </r>
       <r>   12.5668    0.0000 </r>
       <r>   12.5668    0.0000 </r>
       <r>   12.5869    0.0000 </r>
       <r>   12.5870    0.0000 </r>
       <r>   13.0038    0.0000 </r>
       <r>   13.0038    0.0000 </r>
       <r>   13.1364    0.0000 </r>
       <r>   13.1364    0.0000 </r>
       <r>   13.2768    0.0000 </r>
       <r>   13.2769    0.0000 </r>
       <r>   13.9204    0.0000 </r>
       <r>   13.9204    0.0000 </r>
       <r>   14.2240    0.0000 </r>
       <r>   14.2240    0.0000 </r>
       <r>   14.4656    0.0000 </r>
       <r>   14.4656    0.0000 </r>
       <r>   14.9724    0.0000 </r>
       <r>   14.9724    0.0000 </r>
       <r>   15.3004    0.0000 </r>
       <r>   15.3004    0.0000 </r>
       <r>   15.5565    0.0000 </r>
       <r>   15.5565    0.0000 </r>
       <r>   17.1071    0.0000 </r>
       <r>   17.1072    0.0000 </r>
       <r>   17.3764    0.0000 </r>
       <r>   17.3764    0.0000 </r>
       <r>   17.7417    0.0000 </r>
       <r>   17.7417    0.0000 </r>
       <r>   18.4246    0.0000 </r>
       <r>   18.4246    0.0000 </r>
       <r>   18.8911    0.0000 </r>
       <r>   18.8912    0.0000 </r>
       <r>   18.9465    0.0000 </r>
       <r>   18.9465    0.0000 </r>
       <r>   19.9051    0.0000 </r>
[...]
       <r>    13.1034     0.0000     0.0000 </r>
       <r>    13.2058     0.0000     0.0000 </r>
       <r>    13.3082     0.0000     0.0000 </r>
       <r>    13.4106     0.0000     0.0000 </r>
       <r>    13.5130     0.0000     0.0000 </r>
       <r>    13.6154     0.0000     0.0000 </r>
       <r>    13.7178     0.0000     0.0000 </r>
       <r>    13.8202     0.0000     0.0000 </r>
       <r>    13.9226     0.0000     0.0000 </r>
       <r>    14.0250     0.0000     0.0000 </r>
       <r>    14.1274     0.0000     0.0000 </r>
       <r>    14.2298     0.0000     0.0000 </r>
       <r>    14.3322     0.0000     0.0000 </r>
       <r>    14.4346     0.0000     0.0000 </r>
       <r>    14.5370     0.0000     0.0000 </r>
       <r>    14.6394     0.0000     0.0000 </r>
       <r>    14.7418     0.0000     0.0000 </r>
       <r>    14.8442     0.0000     0.0000 </r>
       <r>    14.9466     0.0000     0.0000 </r>
       <r>    15.0490     0.0000     0.0000 </r>
       <r>    15.1514     0.0000     0.0000 </r>
       <r>    15.2538     0.0000     0.0000 </r>
       <r>    15.3562     0.0000     0.0000 </r>
       <r>    15.4586     0.0000     0.0000 </r>
       <r>    15.5610     0.0000     0.0000 </r>
       <r>    15.6634     0.0000     0.0000 </r>
       <r>    15.7658     0.0000     0.0000 </r>
       <r>    15.8682     0.0000     0.0000 </r>
       <r>    15.9706     0.0000     0.0000 </r>
       <r>    16.0730     0.0000     0.0000 </r>
       <r>    16.1754     0.0000     0.0000 </r>
       <r>    16.2778     0.0000     0.0000 </r>
       <r>    16.3802     0.0000     0.0000 </r>
       <r>    16.4826     0.0000     0.0000 </r>
       <r>    16.5849     0.0000     0.0000 </r>
       <r>    16.6873     0.0000     0.0000 </r>
       <r>    16.7897     0.0000     0.0000 </r>
       <r>    16.8921     0.0000     0.0000 </r>
       <r>    16.9945     0.0000     0.0000 </r>
       <r>    17.0969     0.0000     0.0000 </r>
       <r>    17.1993     0.0000     0.0000 </r>
       <r>    17.3017     0.0000     0.0000 </r>
       <r>    17.4041     0.0000     0.0000 </r>
       <r>    17.5065     0.0000     0.0000 </r>
       <r>    17.6089     0.0000     0.0000 </r>
       <r>    17.7113     0.0000     0.0000 </r>
       <r>    17.8137     0.0000     0.0000 </r>
       <r>    17.9161     0.0000     0.0000 </r>
       <r>    18.0185     0.0000     0.0000 </r>
       <r>    18.1209     0.0000     0.0000 </r>
       <r>    18.2233     0.0000     0.0000 </r>
       <r>    18.3257     0.0000     0.0000 </r>
       <r>    18.4281     0.0000     0.0000 </r>
       <r>    18.5305     0.0000     0.0000 </r>
       <r>    18.6329     0.0000     0.0000 </r>
       <r>    18.7353     0.0000     0.0000 </r>
       <r>    18.8377     0.0000     0.0000 </r>
       <r>    18.9401     0.0000     0.0000 </r>
       <r>    19.0425     0.0000     0.0000 </r>
       <r>    19.1449     0.0000     0.0000 </r>
       <r>    19.2473     0.0000     0.0000 </r>
       <r>    19.3497     0.0000     0.0000 </r>
       <r>    19.4521     0.0000     0.0000 </r>
       <r>    19.5545     0.0000     0.0000 </r>
       <r>    19.6569     0.0000     0.0000 </r>
       <r>    19.7593     0.0000     0.0000 </r>
       <r>    19.8617     0.0000     0.0000 </r>
       <r>    19.9640     0.0000     0.0000 </r>
       <r>    20.0664     0.0000     0.0000 </r>
       <r>    20.1688     0.0000     0.0000 </r>
       <r>    20.2712     0.0000     0.0000 </r>
       <r>    20.3736     0.0000     0.0000 </r>
       <r>    20.4760     0.0000     0.0000 </r>
       <r>    20.5784     0.0000     0.0000 </r>
       <r>    20.6808     0.0000     0.0000 </r>
       <r>    20.7832     0.0000     0.0000 </r>
       <r>    20.8856     0.0000     0.0000 </r>
       <r>    20.9880     0.0000     0.0000 </r>
       <r>    21.0904     0.0000     0.0000 </r>
       <r>    21.1928     0.0000     0.0000 </r>
       <r>    21.2952     0.0000     0.0000 </r>
       <r>    21.3976     0.0000     0.0000 </r>
       <r>    21.5000     0.0000     0.0000 </r>
       <r>    21.6024     0.0000     0.0000 </r>
       <r>    21.7048     0.0000     0.0000 </r>
      </set>
      <set comment="spin 4">
       <r>    -9.0143     0.0000     0.0000 </r>
       <r>    -8.9119     0.0000     0.0000 </r>
       <r>    -8.8095     0.0000     0.0000 </r>
       <r>    -8.7071     0.0000     0.0000 </r>
       <r>    -8.6047     0.0000     0.0000 </r>
       <r>    -8.5023     0.0000     0.0000 </r>
       <r>    -8.3999     0.0000     0.0000 </r>
       <r>    -8.2975     0.0000     0.0000 </r>
       <r>    -8.1951     0.0000     0.0000 </r>
       <r>    -8.0927     0.0000     0.0000 </r>
       <r>    -7.9903     0.0000     0.0000 </r>
       <r>    -7.8879     0.0000     0.0000 </r>
       <r>    -7.7855     0.0000     0.0000 </r>
       <r>    -7.6831     0.0000     0.0000 </r>
       <r>    -7.5807     0.0000     0.0000 </r>
       <r>    -7.4783     0.0000     0.0000 </r>
       <r>    -7.3759     0.0000     0.0000 </r>
       <r>    -7.2736     0.0000     0.0000 </r>
       <r>    -7.1712     0.0000     0.0000 </r>
       <r>    -7.0688     0.0000     0.0000 </r>
       <r>    -6.9664     0.0000     0.0000 </r>
       <r>    -6.8640     0.0000     0.0000 </r>
       <r>    -6.7616     0.0000     0.0000 </r>
       <r>    -6.6592     0.0000     0.0000 </r>
       <r>    -6.5568     0.0000     0.0000 </r>
       <r>    -6.4544     0.0000     0.0000 </r>
       <r>    -6.3520     0.0000     0.0000 </r>
       <r>    -6.2496     0.0000     0.0000 </r>
       <r>    -6.1472     0.0000     0.0000 </r>
       <r>    -6.0448     0.0000     0.0000 </r>
       <r>    -5.9424     0.0000     0.0000 </r>
       <r>    -5.8400     0.0000     0.0000 </r>
       <r>    -5.7376     0.0000     0.0000 </r>
       <r>    -5.6352     0.0000     0.0000 </r>
       <r>    -5.5328     0.0000     0.0000 </r>
       <r>    -5.4304     0.0000     0.0000 </r>
       <r>    -5.3280     0.0000     0.0000 </r>
       <r>    -5.2256     0.0000     0.0000 </r>
       <r>    -5.1232     0.0000     0.0000 </r>
       <r>    -5.0208     0.0000     0.0000 </r>
       <r>    -4.9184     0.0000     0.0000 </r>
       <r>    -4.8160     0.0000     0.0000 </r>
       <r>    -4.7136     0.0000     0.0000 </r>
       <r>    -4.6112     0.0000     0.0000 </r>
       <r>    -4.5088     0.0000     0.0000 </r>
       <r>    -4.4064     0.0000     0.0000 </r>
       <r>    -4.3040     0.0000     0.0000 </r>
       <r>    -4.2016     0.0000     0.0000 </r>
       <r>    -4.0992     0.0000     0.0000 </r>
       <r>    -3.9968     0.0000     0.0000 </r>
       <r>    -3.8945     0.0000     0.0000 </r>
       <r>    -3.7921     0.0000     0.0000 </r>
       <r>    -3.6897     0.0000     0.0000 </r>
       <r>    -3.5873     0.0000     0.0000 </r>
       <r>    -3.4849     0.0000     0.0000 </r>
       <r>    -3.3825     0.0000     0.0000 </r>
       <r>    -3.2801     0.0000     0.0000 </r>
       <r>    -3.1777     0.0000     0.0000 </r>
       <r>    -3.0753     0.0000     0.0000 </r>
       <r>    -2.9729     0.0000     0.0000 </r>
       <r>    -2.8705     0.0000     0.0000 </r>
       <r>    -2.7681     0.0000     0.0000 </r>
       <r>    -2.6657     0.0000     0.0000 </r>
       <r>    -2.5633     0.0000     0.0000 </r>
       <r>    -2.4609     0.0000     0.0000 </r>
       <r>    -2.3585     0.0000     0.0000 </r>
       <r>    -2.2561     0.0000     0.0000 </r>
       <r>    -2.1537     0.0000     0.0000 </r>
       <r>    -2.0513     0.0000     0.0000 </r>
       <r>    -1.9489     0.0000     0.0000 </r>
       <r>    -1.8465     0.0000     0.0000 </r>
       <r>    -1.7441     0.0000     0.0000 </r>
       <r>    -1.6417     0.0000     0.0000 </r>
       <r>    -1.5393     0.0000     0.0000 </r>
       <r>    -1.4369     0.0000     0.0000 </r>
       <r>    -1.3345     0.0000     0.0000 </r>
       <r>    -1.2321     0.0000     0.0000 </r>
       <r>    -1.1297     0.0000     0.0000 </r>
       <r>    -1.0273     0.0000     0.0000 </r>
       <r>    -0.9249     0.0000     0.0000 </r>
       <r>    -0.8225     0.0000     0.0000 </r>
       <r>    -0.7201     0.0000     0.0000 </r>
       <r>    -0.6177     0.0000     0.0000 </r>
       <r>    -0.5154     0.0000     0.0000 </r>
       <r>    -0.4130     0.0000     0.0000 </r>
       <r>    -0.3106     0.0000     0.0000 </r>
       <r>    -0.2082     0.0000     0.0000 </r>
       <r>    -0.1058     0.0000     0.0000 </r>
       <r>    -0.0034     0.0000     0.0000 </r>
       <r>     0.0990     0.0000     0.0000 </r>
       <r>     0.2014     0.0000     0.0000 </r>
       <r>     0.3038     0.0000     0.0000 </r>
       <r>     0.4062     0.0000     0.0000 </r>
       <r>     0.5086     0.0000     0.0000 </r>
       <r>     0.6110     0.0000     0.0000 </r>
       <r>     0.7134     0.0000     0.0000 </r>
       <r>     0.8158     0.0000     0.0000 </r>
       <r>     0.9182     0.0000     0.0000 </r>
       <r>     1.0206     0.0000     0.0000 </r>
       <r>     1.1230     0.0000     0.0000 </r>
       <r>     1.2254     0.0000     0.0000 </r>
       <r>     1.3278     0.0000     0.0000 </r>
       <r>     1.4302     0.0000     0.0000 </r>
       <r>     1.5326     0.0000     0.0000 </r>
       <r>     1.6350     0.0000     0.0000 </r>
       <r>     1.7374     0.0000     0.0000 </r>
       <r>     1.8398     0.0000     0.0000 </r>
       <r>     1.9422     0.0000     0.0000 </r>
       <r>     2.0446     0.0000     0.0000 </r>
       <r>     2.1470     0.0000     0.0000 </r>
       <r>     2.2494     0.0000     0.0000 </r>
       <r>     2.3518     0.0000     0.0000 </r>
       <r>     2.4542     0.0000     0.0000 </r>
       <r>     2.5566     0.0000     0.0000 </r>
       <r>     2.6590     0.0000     0.0000 </r>
       <r>     2.7614     0.0000     0.0000 </r>
       <r>     2.8638     0.0000     0.0000 </r>
       <r>     2.9661     0.0000     0.0000 </r>
       <r>     3.0685     0.0000     0.0000 </r>
       <r>     3.1709     0.0000     0.0000 </r>
       <r>     3.2733     0.0000     0.0000 </r>
       <r>     3.3757     0.0000     0.0000 </r>
       <r>     3.4781     0.0000     0.0000 </r>
       <r>     3.5805     0.0000     0.0000 </r>
       <r>     3.6829     0.0000     0.0000 </r>
       <r>     3.7853     0.0000     0.0000 </r>
       <r>     3.8877     0.0000     0.0000 </r>
       <r>     3.9901     0.0000     0.0000 </r>
       <r>     4.0925     0.0000     0.0000 </r>
       <r>     4.1949     0.0000     0.0000 </r>
       <r>     4.2973     0.0000     0.0000 </r>
       <r>     4.3997     0.0000     0.0000 </r>
       <r>     4.5021     0.0000     0.0000 </r>
       <r>     4.6045     0.0000     0.0000 </r>
       <r>     4.7069     0.0000     0.0000 </r>
       <r>     4.8093     0.0000     0.0000 </r>
       <r>     4.9117     0.0000     0.0000 </r>
       <r>     5.0141     0.0000     0.0000 </r>
       <r>     5.1165     0.0000     0.0000 </r>
       <r>     5.2189     0.0000     0.0000 </r>
       <r>     5.3213     0.0000     0.0000 </r>
       <r>     5.4237     0.0000     0.0000 </r>
       <r>     5.5261     0.0000     0.0000 </r>
       <r>     5.6285     0.0000     0.0000 </r>
       <r>     5.7309     0.0000     0.0000 </r>
       <r>     5.8333     0.0000     0.0000 </r>
       <r>     5.9357     0.0000     0.0000 </r>
       <r>     6.0381     0.0000     0.0000 </r>
       <r>     6.1405     0.0000     0.0000 </r>
       <r>     6.2429     0.0000     0.0000 </r>
       <r>     6.3452     0.0000     0.0000 </r>
       <r>     6.4476     0.0000     0.0000 </r>
       <r>     6.5500     0.0000     0.0000 </r>
       <r>     6.6524     0.0000     0.0000 </r>
       <r>     6.7548     0.0000     0.0000 </r>
       <r>     6.8572     0.0000     0.0000 </r>
       <r>     6.9596     0.0000     0.0000 </r>
       <r>     7.0620     0.0000     0.0000 </r>
       <r>     7.1644     0.0000     0.0000 </r>
       <r>     7.2668     0.0000     0.0000 </r>
       <r>     7.3692     0.0000     0.0000 </r>
       <r>     7.4716     0.0000     0.0000 </r>
       <r>     7.5740     0.0000     0.0000 </r>
       <r>     7.6764     0.0000     0.0000 </r>
       <r>     7.7788     0.0000     0.0000 </r>
       <r>     7.8812     0.0000     0.0000 </r>
       <r>     7.9836     0.0000     0.0000 </r>
       <r>     8.0860     0.0000     0.0000 </r>
       <r>     8.1884     0.0000     0.0000 </r>
       <r>     8.2908     0.0000     0.0000 </r>
       <r>     8.3932     0.0000     0.0000 </r>
       <r>     8.4956     0.0000     0.0000 </r>
       <r>     8.5980     0.0000     0.0000 </r>
       <r>     8.7004     0.0000     0.0000 </r>
       <r>     8.8028     0.0000     0.0000 </r>
       <r>     8.9052     0.0000     0.0000 </r>
       <r>     9.0076     0.0000     0.0000 </r>
       <r>     9.1100     0.0000     0.0000 </r>
       <r>     9.2124     0.0000     0.0000 </r>
       <r>     9.3148     0.0000     0.0000 </r>
       <r>     9.4172     0.0000     0.0000 </r>
       <r>     9.5196     0.0000     0.0000 </r>
       <r>     9.6220     0.0000     0.0000 </r>
       <r>     9.7243     0.0000     0.0000 </r>
       <r>     9.8267     0.0000     0.0000 </r>
       <r>     9.9291     0.0000     0.0000 </r>
       <r>    10.0315     0.0000     0.0000 </r>
       <r>    10.1339     0.0000     0.0000 </r>
       <r>    10.2363     0.0000     0.0000 </r>
       <r>    10.3387     0.0000     0.0000 </r>
       <r>    10.4411     0.0000     0.0000 </r>
       <r>    10.5435     0.0000     0.0000 </r>
       <r>    10.6459     0.0000     0.0000 </r>
       <r>    10.7483     0.0000     0.0000 </r>
       <r>    10.8507     0.0000     0.0000 </r>
       <r>    10.9531     0.0000     0.0000 </r>
       <r>    11.0555     0.0000     0.0000 </r>
       <r>    11.1579     0.0000     0.0000 </r>
       <r>    11.2603     0.0000     0.0000 </r>
       <r>    11.3627     0.0000     0.0000 </r>
       <r>    11.4651     0.0000     0.0000 </r>
       <r>    11.5675     0.0000     0.0000 </r>
       <r>    11.6699     0.0000     0.0000 </r>
       <r>    11.7723     0.0000     0.0000 </r>
       <r>    11.8747     0.0000     0.0000 </r>
       <r>    11.9771     0.0000     0.0000 </r>
       <r>    12.0795     0.0000     0.0000 </r>
       <r>    12.1819     0.0000     0.0000 </r>
       <r>    12.2843     0.0000     0.0000 </r>
       <r>    12.3867     0.0000     0.0000 </r>
       <r>    12.4891     0.0000     0.0000 </r>
       <r>    12.5915     0.0000     0.0000 </r>
       <r>    12.6939     0.0000     0.0000 </r>
       <r>    12.7963     0.0000     0.0000 </r>
       <r>    12.8987     0.0000     0.0000 </r>
       <r>    13.0011     0.0000     0.0000 </r>
       <r>    13.1034     0.0000     0.0000 </r>
       <r>    13.2058     0.0000     0.0000 </r>
       <r>    13.3082     0.0000     0.0000 </r>
       <r>    13.4106     0.0000     0.0000 </r>
       <r>    13.5130     0.0000     0.0000 </r>
       <r>    13.6154     0.0000     0.0000 </r>
       <r>    13.7178     0.0000     0.0000 </r>
       <r>    13.8202     0.0000     0.0000 </r>
       <r>    13.9226     0.0000     0.0000 </r>
       <r>    14.0250     0.0000     0.0000 </r>
       <r>    14.1274     0.0000     0.0000 </r>
       <r>    14.2298     0.0000     0.0000 </r>
       <r>    14.3322     0.0000     0.0000 </r>
       <r>    14.4346     0.0000     0.0000 </r>
       <r>    14.5370     0.0000     0.0000 </r>
       <r>    14.6394     0.0000     0.0000 </r>
       <r>    14.7418     0.0000     0.0000 </r>
       <r>    14.8442     0.0000     0.0000 </r>
       <r>    14.9466     0.0000     0.0000 </r>
       <r>    15.0490     0.0000     0.0000 </r>
       <r>    15.1514     0.0000     0.0000 </r>
       <r>    15.2538     0.0000     0.0000 </r>
       <r>    15.3562     0.0000     0.0000 </r>
       <r>    15.4586     0.0000     0.0000 </r>
       <r>    15.5610     0.0000     0.0000 </r>
       <r>    15.6634     0.0000     0.0000 </r>
       <r>    15.7658     0.0000     0.0000 </r>
       <r>    15.8682     0.0000     0.0000 </r>
       <r>    15.9706     0.0000     0.0000 </r>
       <r>    16.0730     0.0000     0.0000 </r>
       <r>    16.1754     0.0000     0.0000 </r>
       <r>    16.2778     0.0000     0.0000 </r>
       <r>    16.3802     0.0000     0.0000 </r>
       <r>    16.4826     0.0000     0.0000 </r>
       <r>    16.5849     0.0000     0.0000 </r>
       <r>    16.6873     0.0000     0.0000 </r>
       <r>    16.7897     0.0000     0.0000 </r>
       <r>    16.8921     0.0000     0.0000 </r>
       <r>    16.9945     0.0000     0.0000 </r>
       <r>    17.0969     0.0000     0.0000 </r>
       <r>    17.1993     0.0000     0.0000 </r>
       <r>    17.3017     0.0000     0.0000 </r>
       <r>    17.4041     0.0000     0.0000 </r>
       <r>    17.5065     0.0000     0.0000 </r>
       <r>    17.6089     0.0000     0.0000 </r>
       <r>    17.7113     0.0000     0.0000 </r>
       <r>    17.8137     0.0000     0.0000 </r>
       <r>    17.9161     0.0000     0.0000 </r>
       <r>    18.0185     0.0000     0.0000 </r>
       <r>    18.1209     0.0000     0.0000 </r>
       <r>    18.2233     0.0000     0.0000 </r>
       <r>    18.3257     0.0000     0.0000 </r>
       <r>    18.4281     0.0000     0.0000 </r>
       <r>    18.5305     0.0000     0.0000 </r>
       <r>    18.6329     0.0000     0.0000 </r>
       <r>    18.7353     0.0000     0.0000 </r>
       <r>    18.8377     0.0000     0.0000 </r>
       <r>    18.9401     0.0000     0.0000 </r>
       <r>    19.0425     0.0000     0.0000 </r>
       <r>    19.1449     0.0000     0.0000 </r>
       <r>    19.2473     0.0000     0.0000 </r>
       <r>    19.3497     0.0000     0.0000 </r>
       <r>    19.4521     0.0000     0.0000 </r>
       <r>    19.5545     0.0000     0.0000 </r>
       <r>    19.6569     0.0000     0.0000 </r>
       <r>    19.7593     0.0000     0.0000 </r>
       <r>    19.8617     0.0000     0.0000 </r>
       <r>    19.9640     0.0000     0.0000 </r>
       <r>    20.0664     0.0000     0.0000 </r>
       <r>    20.1688     0.0000     0.0000 </r>
       <r>    20.2712     0.0000     0.0000 </r>
       <r>    20.3736     0.0000     0.0000 </r>
       <r>    20.4760     0.0000     0.0000 </r>
       <r>    20.5784     0.0000     0.0000 </r>
       <r>    20.6808     0.0000     0.0000 </r>
       <r>    20.7832     0.0000     0.0000 </r>
       <r>    20.8856     0.0000     0.0000 </r>
       <r>    20.9880     0.0000     0.0000 </r>
       <r>    21.0904     0.0000     0.0000 </r>
       <r>    21.1928     0.0000     0.0000 </r>
       <r>    21.2952     0.0000     0.0000 </r>
       <r>    21.3976     0.0000     0.0000 </r>
       <r>    21.5000     0.0000     0.0000 </r>
       <r>    21.6024     0.0000     0.0000 </r>
       <r>    21.7048     0.0000     0.0000 </r>
      </set>
     </set>
    </array>
   </total>
  </dos>
 </calculation>
 <structure name="finalpos" >
  <crystal>
   <varray name="basis" >
    <v>      10.22228271      -2.21667734       0.00000000 </v>
    <v>      10.22228271       2.21667734       0.00000000 </v>
    <v>       9.74160157       0.00000000       3.80918902 </v>
   </varray>
   <i name="volume">    172.62865583 </i>
   <varray name="rec_basis" >
    <v>       0.04891275      -0.22556282      -0.12508924 </v>
    <v>       0.04891275       0.22556282      -0.12508924 </v>
    <v>      -0.00000000       0.00000000       0.26252307 </v>
   </varray>
  </crystal>
  <varray name="positions" >
   <v>       0.39979833       0.39979833       0.39979833 </v>
   <v>       0.60020167       0.60020167       0.60020167 </v>
   <v>       0.00000000       0.00000000       0.00000000 </v>
   <v>       0.21048582       0.21048582       0.21048582 </v>
   <v>       0.78951418       0.78951418       0.78951418 </v>
  </varray>
 </structure>
</modeling>
