    2    2    1    1
  0.3542691E+02  0.4644719E-09  0.4644719E-09  0.4644719E-09  0.5000000E-15
   1.0000000000000000E-004
  CAR 
 PbTe                                    
     20     61     60

  0.1814520E+00  0.1814520E+00  0.3629030E+00  0.1639344E-01
    1      -13.067649   1.000000
    2      -13.067648   1.000000
    3      -13.064709   1.000000
    4      -13.064708   1.000000
    5      -10.518218   1.000000
    6      -10.518218   1.000000
    7      -10.510152   1.000000
    8      -10.510151   1.000000
    9      -10.497584   1.000000
   10      -10.497584   1.000000
   11       -5.977431   1.000000
   12       -5.977428   1.000000
   13       -2.111637   1.000000
   14       -2.111635   1.000000
   15        2.711161   1.000000
   16        2.711167   1.000000
   17        4.293229   1.000000
   18        4.293231   1.000000
   19        4.963062   1.000000
   20        4.963063   1.000000
   21        5.951291   0.000000
   22        5.951294   0.000000
   23        7.069762   0.000000
   24        7.069767   0.000000
   25        9.239924   0.000000
   26        9.239926   0.000000
   27       11.113142   0.000000
   28       11.113149   0.000000
   29       11.658096   0.000000
   30       11.658111   0.000000
   31       13.427798   0.000000
   32       13.427823   0.000000
   33       13.681765   0.000000
   34       13.681828   0.000000
   35       15.910177   0.000000
   36       15.910203   0.000000
   37       16.462030   0.000000
   38       16.462038   0.000000
   39       17.100497   0.000000
   40       17.100509   0.000000
   41       18.151994   0.000000
   42       18.151999   0.000000
   43       20.572068   0.000000
   44       20.572079   0.000000
   45       20.833818   0.000000
   46       20.833824   0.000000
   47       21.246628   0.000000
   48       21.246629   0.000000
   49       21.838089   0.000000
   50       21.838094   0.000000
   51       23.914703   0.000000
   52       23.914794   0.000000
   53       24.870543   0.000000
   54       24.882535   0.000000
   55       25.570191   0.000000
   56       25.611348   0.000000
   57       25.888104   0.000000
   58       25.948810   0.000000
   59       26.118415   0.000000
   60       26.359150   0.000000

  0.1814520E+00  0.1616963E+00  0.3431473E+00  0.1639344E-01
    1      -13.067616   1.000000
    2      -13.067615   1.000000
    3      -13.064849   1.000000
    4      -13.064848   1.000000
    5      -10.517780   1.000000
    6      -10.517780   1.000000
    7      -10.510078   1.000000
    8      -10.510077   1.000000
    9      -10.498072   1.000000
   10      -10.498072   1.000000
   11       -6.039659   1.000000
   12       -6.039656   1.000000
   13       -2.009392   1.000000
   14       -2.009390   1.000000
   15        2.786828   1.000000
   16        2.786834   1.000000
   17        4.268442   1.000000
   18        4.268445   1.000000
   19        4.911836   1.000000
   20        4.911837   1.000000
   21        6.048979   0.000000
   22        6.048982   0.000000
   23        7.177677   0.000000
   24        7.177681   0.000000
   25        9.213061   0.000000
   26        9.213062   0.000000
   27       10.971302   0.000000
   28       10.971307   0.000000
   29       11.647492   0.000000
   30       11.647506   0.000000
   31       13.286130   0.000000
   32       13.286136   0.000000
   33       13.503389   0.000000
   34       13.503389   0.000000
   35       15.929953   0.000000
   36       15.929955   0.000000
   37       16.175665   0.000000
   38       16.175673   0.000000
   39       16.850789   0.000000
   40       16.850801   0.000000
   41       18.090742   0.000000
   42       18.090749   0.000000
   43       20.697357   0.000000
   44       20.697365   0.000000
   45       20.923421   0.000000
   46       20.923426   0.000000
   47       21.454525   0.000000
   48       21.454527   0.000000
   49       21.991137   0.000000
   50       21.991144   0.000000
   51       24.148737   0.000000
   52       24.149658   0.000000
   53       24.681175   0.000000
   54       24.700200   0.000000
   55       25.756535   0.000000
   56       25.817347   0.000000
   57       26.131012   0.000000
   58       26.190651   0.000000
   59       26.405545   0.000000
   60       26.565940   0.000000

  0.1814520E+00  0.1715741E+00  0.3530251E+00  0.1639344E-01
    1      -13.067633   1.000000
    2      -13.067632   1.000000
    3      -13.064777   1.000000
    4      -13.064776   1.000000
    5      -10.517979   1.000000
    6      -10.517979   1.000000
    7      -10.510115   1.000000
    8      -10.510114   1.000000
    9      -10.497837   1.000000
   10      -10.497837   1.000000
   11       -6.009266   1.000000
   12       -6.009263   1.000000
   13       -2.060852   1.000000
   14       -2.060850   1.000000
   15        2.749847   1.000000
   16        2.749853   1.000000
   17        4.287440   1.000000
   18        4.287443   1.000000
   19        4.945769   1.000000
   20        4.945770   1.000000
   21        5.991157   0.000000
   22        5.991160   0.000000
   23        7.113923   0.000000
   24        7.113927   0.000000
   25        9.225029   0.000000
   26        9.225030   0.000000
   27       11.055155   0.000000
   28       11.055162   0.000000
   29       11.636746   0.000000
   30       11.636761   0.000000
   31       13.364287   0.000000
   32       13.364293   0.000000
   33       13.582138   0.000000
   34       13.582190   0.000000
   35       15.952205   0.000000
   36       15.952282   0.000000
   37       16.315273   0.000000
   38       16.315281   0.000000
   39       16.961449   0.000000
   40       16.961462   0.000000
   41       18.101654   0.000000
   42       18.101659   0.000000
   43       20.645142   0.000000
   44       20.645152   0.000000
   45       20.896371   0.000000
   46       20.896375   0.000000
   47       21.330165   0.000000
   48       21.330178   0.000000
   49       21.903507   0.000000
   50       21.903512   0.000000
   51       24.048474   0.000000
   52       24.049049   0.000000
   53       24.795775   0.000000
   54       24.801518   0.000000
   55       25.654361   0.000000
   56       25.671741   0.000000
   57       25.998433   0.000000
   58       26.055606   0.000000
   59       26.106733   0.000000
   60       26.355408   0.000000

  0.1814520E+00  0.1913299E+00  0.3727809E+00  0.1639344E-01
    1      -13.067665   1.000000
    2      -13.067664   1.000000
    3      -13.064646   1.000000
    4      -13.064646   1.000000
    5      -10.518500   1.000000
    6      -10.518500   1.000000
    7      -10.510190   1.000000
    8      -10.510189   1.000000
    9      -10.497317   1.000000
   10      -10.497316   1.000000
   11       -5.944233   1.000000
   12       -5.944231   1.000000
   13       -2.161457   1.000000
   14       -2.161456   1.000000
   15        2.671145   1.000000
   16        2.671151   1.000000
   17        4.285548   1.000000
   18        4.285551   1.000000
   19        4.954349   1.000000
   20        4.954350   1.000000
   21        5.939609   0.000000
   22        5.939612   0.000000
   23        7.044821   0.000000
   24        7.044826   0.000000
   25        9.257349   0.000000
   26        9.257351   0.000000
   27       11.138555   0.000000
   28       11.138562   0.000000
   29       11.718338   0.000000
   30       11.718351   0.000000
   31       13.481325   0.000000
   32       13.481358   0.000000
   33       13.796981   0.000000
   34       13.796991   0.000000
   35       15.826598   0.000000
   36       15.826600   0.000000
   37       16.615163   0.000000
   38       16.615172   0.000000
   39       17.241661   0.000000
   40       17.241673   0.000000
   41       18.245355   0.000000
   42       18.245359   0.000000
   43       20.479375   0.000000
   44       20.479386   0.000000
   45       20.729380   0.000000
   46       20.729381   0.000000
   47       21.210004   0.000000
   48       21.210009   0.000000
   49       21.794764   0.000000
   50       21.794770   0.000000
   51       23.760069   0.000000
   52       23.760160   0.000000
   53       24.868235   0.000000
   54       24.897953   0.000000
   55       25.437635   0.000000
   56       25.480080   0.000000
   57       25.867124   0.000000
   58       25.899801   0.000000
   59       25.946050   0.000000
   60       26.230418   0.000000

  0.1814520E+00  0.2012077E+00  0.3826587E+00  0.1639344E-01
    1      -13.067680   1.000000
    2      -13.067679   1.000000
    3      -13.064589   1.000000
    4      -13.064588   1.000000
    5      -10.518828   1.000000
    6      -10.518828   1.000000
    7      -10.510223   1.000000
    8      -10.510222   1.000000
    9      -10.497034   1.000000
   10      -10.497034   1.000000
   11       -5.909754   1.000000
   12       -5.909751   1.000000
   13       -2.210056   1.000000
   14       -2.210054   1.000000
   15        2.630135   1.000000
   16        2.630142   1.000000
   17        4.263484   1.000000
   18        4.263487   1.000000
   19        4.916870   1.000000
   20        4.916871   1.000000
   21        5.960358   0.000000
   22        5.960361   0.000000
   23        7.038693   0.000000
   24        7.038697   0.000000
   25        9.276928   0.000000
   26        9.276929   0.000000
   27       11.136172   0.000000
   28       11.136179   0.000000
   29       11.812762   0.000000
   30       11.812775   0.000000
   31       13.529772   0.000000
   32       13.529797   0.000000
   33       13.922220   0.000000
   34       13.922235   0.000000
   35       15.718879   0.000000
   36       15.718881   0.000000
   37       16.772809   0.000000
   38       16.772817   0.000000
   39       17.368191   0.000000
   40       17.368203   0.000000
   41       18.382082   0.000000
   42       18.382086   0.000000
   43       20.370366   0.000000
   44       20.370375   0.000000
   45       20.596658   0.000000
   46       20.596664   0.000000
   47       21.206309   0.000000
   48       21.206313   0.000000
   49       21.771491   0.000000
   50       21.771497   0.000000
   51       23.588854   0.000000
   52       23.588902   0.000000
   53       24.800171   0.000000
   54       24.807155   0.000000
   55       25.287415   0.000000
   56       25.306826   0.000000
   57       25.705270   0.000000
   58       25.872329   0.000000
   59       25.991301   0.000000
   60       26.130738   0.000000

  0.1616963E+00  0.1814520E+00  0.3431473E+00  0.1639344E-01
    1      -13.067616   1.000000
    2      -13.067615   1.000000
    3      -13.064849   1.000000
    4      -13.064848   1.000000
    5      -10.517780   1.000000
    6      -10.517780   1.000000
    7      -10.510078   1.000000
    8      -10.510077   1.000000
    9      -10.498072   1.000000
   10      -10.498072   1.000000
   11       -6.039659   1.000000
   12       -6.039656   1.000000
   13       -2.009392   1.000000
   14       -2.009390   1.000000
   15        2.786828   1.000000
   16        2.786834   1.000000
   17        4.268442   1.000000
   18        4.268445   1.000000
   19        4.911836   1.000000
   20        4.911837   1.000000
   21        6.048979   0.000000
   22        6.048982   0.000000
   23        7.177677   0.000000
   24        7.177681   0.000000
   25        9.213061   0.000000
   26        9.213062   0.000000
   27       10.971302   0.000000
   28       10.971307   0.000000
   29       11.647493   0.000000
   30       11.647506   0.000000
   31       13.286204   0.000000
   32       13.286231   0.000000
   33       13.503365   0.000000
   34       13.503395   0.000000
   35       15.929956   0.000000
   36       15.929960   0.000000
   37       16.175665   0.000000
   38       16.175673   0.000000
   39       16.850789   0.000000
   40       16.850801   0.000000
   41       18.090742   0.000000
   42       18.090749   0.000000
   43       20.697360   0.000000
   44       20.697363   0.000000
   45       20.923423   0.000000
   46       20.923425   0.000000
   47       21.454527   0.000000
   48       21.454544   0.000000
   49       21.991137   0.000000
   50       21.991142   0.000000
   51       24.148615   0.000000
   52       24.148750   0.000000
   53       24.681303   0.000000
   54       24.682149   0.000000
   55       25.773370   0.000000
   56       25.808877   0.000000
   57       26.133204   0.000000
   58       26.186452   0.000000
   59       26.213569   0.000000
   60       26.581749   0.000000

  0.1715741E+00  0.1814520E+00  0.3530251E+00  0.1639344E-01
    1      -13.067633   1.000000
    2      -13.067632   1.000000
    3      -13.064777   1.000000
    4      -13.064776   1.000000
    5      -10.517979   1.000000
    6      -10.517979   1.000000
    7      -10.510115   1.000000
    8      -10.510114   1.000000
    9      -10.497837   1.000000
   10      -10.497837   1.000000
   11       -6.009266   1.000000
   12       -6.009263   1.000000
   13       -2.060852   1.000000
   14       -2.060850   1.000000
   15        2.749847   1.000000
   16        2.749853   1.000000
   17        4.287440   1.000000
   18        4.287443   1.000000
   19        4.945770   1.000000
   20        4.945770   1.000000
   21        5.991157   0.000000
   22        5.991160   0.000000
   23        7.113923   0.000000
   24        7.113927   0.000000
   25        9.225029   0.000000
   26        9.225030   0.000000
   27       11.055155   0.000000
   28       11.055162   0.000000
   29       11.636744   0.000000
   30       11.636759   0.000000
   31       13.364357   0.000000
   32       13.364394   0.000000
   33       13.582092   0.000000
   34       13.582108   0.000000
   35       15.952134   0.000000
   36       15.952135   0.000000
   37       16.315273   0.000000
   38       16.315281   0.000000
   39       16.961449   0.000000
   40       16.961462   0.000000
   41       18.101654   0.000000
   42       18.101660   0.000000
   43       20.645143   0.000000
   44       20.645152   0.000000
   45       20.896372   0.000000
   46       20.896374   0.000000
   47       21.330166   0.000000
   48       21.330167   0.000000
   49       21.903509   0.000000
   50       21.903511   0.000000
   51       24.048401   0.000000
   52       24.048553   0.000000
   53       24.795402   0.000000
   54       24.796605   0.000000
   55       25.652184   0.000000
   56       25.668552   0.000000
   57       25.987268   0.000000
   58       26.019016   0.000000
   59       26.120852   0.000000
   60       26.393770   0.000000

  0.1913299E+00  0.1814520E+00  0.3727809E+00  0.1639344E-01
    1      -13.067665   1.000000
    2      -13.067664   1.000000
    3      -13.064646   1.000000
    4      -13.064646   1.000000
    5      -10.518500   1.000000
    6      -10.518500   1.000000
    7      -10.510190   1.000000
    8      -10.510189   1.000000
    9      -10.497317   1.000000
   10      -10.497316   1.000000
   11       -5.944233   1.000000
   12       -5.944231   1.000000
   13       -2.161457   1.000000
   14       -2.161456   1.000000
   15        2.671145   1.000000
   16        2.671151   1.000000
   17        4.285548   1.000000
   18        4.285551   1.000000
   19        4.954349   1.000000
   20        4.954350   1.000000
   21        5.939609   0.000000
   22        5.939612   0.000000
   23        7.044821   0.000000
   24        7.044826   0.000000
   25        9.257349   0.000000
   26        9.257351   0.000000
   27       11.138555   0.000000
   28       11.138564   0.000000
   29       11.718335   0.000000
   30       11.718352   0.000000
   31       13.481328   0.000000
   32       13.481335   0.000000
   33       13.796981   0.000000
   34       13.796985   0.000000
   35       15.826598   0.000000
   36       15.826600   0.000000
   37       16.615163   0.000000
   38       16.615172   0.000000
   39       17.241661   0.000000
   40       17.241673   0.000000
   41       18.245355   0.000000
   42       18.245359   0.000000
   43       20.479375   0.000000
   44       20.479386   0.000000
   45       20.729377   0.000000
   46       20.729384   0.000000
   47       21.210004   0.000000
   48       21.210008   0.000000
   49       21.794764   0.000000
   50       21.794770   0.000000
   51       23.760059   0.000000
   52       23.760260   0.000000
   53       24.869153   0.000000
   54       24.878044   0.000000
   55       25.426783   0.000000
   56       25.441235   0.000000
   57       25.877174   0.000000
   58       25.902582   0.000000
   59       25.949226   0.000000
   60       26.146114   0.000000

  0.2012077E+00  0.1814520E+00  0.3826587E+00  0.1639344E-01
    1      -13.067680   1.000000
    2      -13.067679   1.000000
    3      -13.064589   1.000000
    4      -13.064588   1.000000
    5      -10.518828   1.000000
    6      -10.518828   1.000000
    7      -10.510223   1.000000
    8      -10.510222   1.000000
    9      -10.497034   1.000000
   10      -10.497033   1.000000
   11       -5.909754   1.000000
   12       -5.909751   1.000000
   13       -2.210056   1.000000
   14       -2.210054   1.000000
   15        2.630135   1.000000
   16        2.630142   1.000000
   17        4.263484   1.000000
   18        4.263487   1.000000
   19        4.916870   1.000000
   20        4.916871   1.000000
   21        5.960358   0.000000
   22        5.960361   0.000000
   23        7.038693   0.000000
   24        7.038697   0.000000
   25        9.276928   0.000000
   26        9.276929   0.000000
   27       11.136172   0.000000
   28       11.136177   0.000000
   29       11.812761   0.000000
   30       11.812776   0.000000
   31       13.529792   0.000000
   32       13.529813   0.000000
   33       13.922269   0.000000
   34       13.922439   0.000000
   35       15.718931   0.000000
   36       15.719127   0.000000
   37       16.772809   0.000000
   38       16.772817   0.000000
   39       17.368191   0.000000
   40       17.368203   0.000000
   41       18.382082   0.000000
   42       18.382086   0.000000
   43       20.370366   0.000000
   44       20.370376   0.000000
   45       20.596658   0.000000
   46       20.596665   0.000000
   47       21.206310   0.000000
   48       21.206313   0.000000
   49       21.771494   0.000000
   50       21.771495   0.000000
   51       23.588863   0.000000
   52       23.588963   0.000000
   53       24.800444   0.000000
   54       24.809538   0.000000
   55       25.287755   0.000000
   56       25.374107   0.000000
   57       25.729531   0.000000
   58       25.832239   0.000000
   59       26.028010   0.000000
   60       26.130305   0.000000

  0.1616963E+00  0.1616963E+00  0.3629030E+00  0.1639344E-01
    1      -13.067672   1.000000
    2      -13.067671   1.000000
    3      -13.064677   1.000000
    4      -13.064676   1.000000
    5      -10.518313   1.000000
    6      -10.518312   1.000000
    7      -10.510033   1.000000
    8      -10.510032   1.000000
    9      -10.497568   1.000000
   10      -10.497568   1.000000
   11       -5.974026   1.000000
   12       -5.974024   1.000000
   13       -2.122822   1.000000
   14       -2.122820   1.000000
   15        2.732480   1.000000
   16        2.732487   1.000000
   17        4.292233   1.000000
   18        4.292235   1.000000
   19        4.960724   1.000000
   20        4.960725   1.000000
   21        5.947243   0.000000
   22        5.947246   0.000000
   23        7.065422   0.000000
   24        7.065426   0.000000
   25        9.196232   0.000000
   26        9.196233   0.000000
   27       11.101076   0.000000
   28       11.101083   0.000000
   29       11.676902   0.000000
   30       11.676917   0.000000
   31       13.483901   0.000000
   32       13.483937   0.000000
   33       13.692320   0.000000
   34       13.692331   0.000000
   35       15.915593   0.000000
   36       15.915595   0.000000
   37       16.487299   0.000000
   38       16.487307   0.000000
   39       17.104260   0.000000
   40       17.104273   0.000000
   41       18.150422   0.000000
   42       18.150427   0.000000
   43       20.370160   0.000000
   44       20.370167   0.000000
   45       20.653582   0.000000
   46       20.653583   0.000000
   47       21.477151   0.000000
   48       21.477151   0.000000
   49       22.009797   0.000000
   50       22.009799   0.000000
   51       23.903873   0.000000
   52       23.904098   0.000000
   53       24.873346   0.000000
   54       24.893693   0.000000
   55       25.450937   0.000000
   56       25.456291   0.000000
   57       25.868387   0.000000
   58       25.956090   0.000000
   59       26.171285   0.000000
   60       26.295482   0.000000

  0.1715741E+00  0.1715741E+00  0.3629030E+00  0.1639344E-01
    1      -13.067655   1.000000
    2      -13.067654   1.000000
    3      -13.064701   1.000000
    4      -13.064700   1.000000
    5      -10.518242   1.000000
    6      -10.518242   1.000000
    7      -10.510123   1.000000
    8      -10.510122   1.000000
    9      -10.497580   1.000000
   10      -10.497580   1.000000
   11       -5.976579   1.000000
   12       -5.976576   1.000000
   13       -2.114445   1.000000
   14       -2.114443   1.000000
   15        2.716510   1.000000
   16        2.716517   1.000000
   17        4.292978   1.000000
   18        4.292981   1.000000
   19        4.962480   1.000000
   20        4.962481   1.000000
   21        5.950271   0.000000
   22        5.950274   0.000000
   23        7.068666   0.000000
   24        7.068670   0.000000
   25        9.229008   0.000000
   26        9.229009   0.000000
   27       11.109751   0.000000
   28       11.109759   0.000000
   29       11.662807   0.000000
   30       11.662823   0.000000
   31       13.443626   0.000000
   32       13.443757   0.000000
   33       13.682964   0.000000
   34       13.682989   0.000000
   35       15.911607   0.000000
   36       15.911806   0.000000
   37       16.468378   0.000000
   38       16.468387   0.000000
   39       17.101439   0.000000
   40       17.101451   0.000000
   41       18.151626   0.000000
   42       18.151631   0.000000
   43       20.512607   0.000000
   44       20.512607   0.000000
   45       20.779175   0.000000
   46       20.779179   0.000000
   47       21.318213   0.000000
   48       21.318217   0.000000
   49       21.885614   0.000000
   50       21.885618   0.000000
   51       23.911941   0.000000
   52       23.912697   0.000000
   53       24.874387   0.000000
   54       24.875275   0.000000
   55       25.537971   0.000000
   56       25.571293   0.000000
   57       25.938409   0.000000
   58       25.976810   0.000000
   59       26.194220   0.000000
   60       26.387443   0.000000

  0.1913299E+00  0.1913299E+00  0.3629030E+00  0.1639344E-01
    1      -13.067655   1.000000
    2      -13.067654   1.000000
    3      -13.064701   1.000000
    4      -13.064700   1.000000
    5      -10.518242   1.000000
    6      -10.518242   1.000000
    7      -10.510123   1.000000
    8      -10.510122   1.000000
    9      -10.497580   1.000000
   10      -10.497580   1.000000
   11       -5.976579   1.000000
   12       -5.976576   1.000000
   13       -2.114446   1.000000
   14       -2.114444   1.000000
   15        2.716511   1.000000
   16        2.716518   1.000000
   17        4.292978   1.000000
   18        4.292981   1.000000
   19        4.962480   1.000000
   20        4.962481   1.000000
   21        5.950270   0.000000
   22        5.950274   0.000000
   23        7.068665   0.000000
   24        7.068670   0.000000
   25        9.229005   0.000000
   26        9.229007   0.000000
   27       11.109750   0.000000
   28       11.109758   0.000000
   29       11.662809   0.000000
   30       11.662834   0.000000
   31       13.443602   0.000000
   32       13.443630   0.000000
   33       13.682919   0.000000
   34       13.682932   0.000000
   35       15.911582   0.000000
   36       15.911738   0.000000
   37       16.468380   0.000000
   38       16.468388   0.000000
   39       17.101442   0.000000
   40       17.101449   0.000000
   41       18.151626   0.000000
   42       18.151631   0.000000
   43       20.512592   0.000000
   44       20.512600   0.000000
   45       20.779167   0.000000
   46       20.779168   0.000000
   47       21.318226   0.000000
   48       21.318230   0.000000
   49       21.885624   0.000000
   50       21.885627   0.000000
   51       23.912048   0.000000
   52       23.912358   0.000000
   53       24.875206   0.000000
   54       24.881882   0.000000
   55       25.518768   0.000000
   56       25.560521   0.000000
   57       25.896223   0.000000
   58       25.969439   0.000000
   59       26.065143   0.000000
   60       26.284924   0.000000

  0.2012077E+00  0.2012077E+00  0.3629030E+00  0.1639344E-01
    1      -13.067672   1.000000
    2      -13.067670   1.000000
    3      -13.064677   1.000000
    4      -13.064676   1.000000
    5      -10.518313   1.000000
    6      -10.518312   1.000000
    7      -10.510033   1.000000
    8      -10.510032   1.000000
    9      -10.497568   1.000000
   10      -10.497568   1.000000
   11       -5.974026   1.000000
   12       -5.974023   1.000000
   13       -2.122823   1.000000
   14       -2.122821   1.000000
   15        2.732483   1.000000
   16        2.732489   1.000000
   17        4.292233   1.000000
   18        4.292235   1.000000
   19        4.960724   1.000000
   20        4.960725   1.000000
   21        5.947242   0.000000
   22        5.947245   0.000000
   23        7.065421   0.000000
   24        7.065426   0.000000
   25        9.196228   0.000000
   26        9.196229   0.000000
   27       11.101075   0.000000
   28       11.101082   0.000000
   29       11.676905   0.000000
   30       11.676920   0.000000
   31       13.483831   0.000000
   32       13.483842   0.000000
   33       13.692327   0.000000
   34       13.692337   0.000000
   35       15.915595   0.000000
   36       15.915596   0.000000
   37       16.487302   0.000000
   38       16.487310   0.000000
   39       17.104260   0.000000
   40       17.104273   0.000000
   41       18.150422   0.000000
   42       18.150427   0.000000
   43       20.370141   0.000000
   44       20.370152   0.000000
   45       20.653566   0.000000
   46       20.653569   0.000000
   47       21.477164   0.000000
   48       21.477176   0.000000
   49       22.009810   0.000000
   50       22.009816   0.000000
   51       23.903806   0.000000
   52       23.903956   0.000000
   53       24.874735   0.000000
   54       24.881108   0.000000
   55       25.446458   0.000000
   56       25.467796   0.000000
   57       25.868874   0.000000
   58       26.000092   0.000000
   59       26.129080   0.000000
   60       26.274766   0.000000

  0.1616963E+00  0.1616963E+00  0.3233915E+00  0.1639344E-01
    1      -13.067579   1.000000
    2      -13.067578   1.000000
    3      -13.064995   1.000000
    4      -13.064994   1.000000
    5      -10.517174   1.000000
    6      -10.517174   1.000000
    7      -10.510042   1.000000
    8      -10.510041   1.000000
    9      -10.498658   1.000000
   10      -10.498657   1.000000
   11       -6.103231   1.000000
   12       -6.103228   1.000000
   13       -1.905589   1.000000
   14       -1.905587   1.000000
   15        2.860486   1.000000
   16        2.860492   1.000000
   17        4.272208   1.000000
   18        4.272211   1.000000
   19        4.901455   1.000000
   20        4.901455   1.000000
   21        6.111180   0.000000
   22        6.111183   0.000000
   23        7.253385   0.000000
   24        7.253389   0.000000
   25        9.189349   0.000000
   26        9.189350   0.000000
   27       10.960250   0.000000
   28       10.960256   0.000000
   29       11.504683   0.000000
   30       11.504696   0.000000
   31       13.078571   0.000000
   32       13.078579   0.000000
   33       13.388325   0.000000
   34       13.388352   0.000000
   35       15.798286   0.000000
   36       15.798293   0.000000
   37       15.988281   0.000000
   38       15.988283   0.000000
   39       16.543623   0.000000
   40       16.543636   0.000000
   41       18.134611   0.000000
   42       18.134619   0.000000
   43       20.914345   0.000000
   44       20.914353   0.000000
   45       21.181380   0.000000
   46       21.181385   0.000000
   47       21.488232   0.000000
   48       21.488238   0.000000
   49       22.067046   0.000000
   50       22.067052   0.000000
   51       24.346404   0.000000
   52       24.347481   0.000000
   53       24.871735   0.000000
   54       24.874212   0.000000
   55       25.701331   0.000000
   56       25.737959   0.000000
   57       26.351300   0.000000
   58       26.401683   0.000000
   59       26.504069   0.000000
   60       26.662680   0.000000

  0.1616963E+00  0.1715741E+00  0.3332694E+00  0.1639344E-01
    1      -13.067598   1.000000
    2      -13.067596   1.000000
    3      -13.064919   1.000000
    4      -13.064919   1.000000
    5      -10.517456   1.000000
    6      -10.517455   1.000000
    7      -10.510060   1.000000
    8      -10.510059   1.000000
    9      -10.498373   1.000000
   10      -10.498373   1.000000
   11       -6.072194   1.000000
   12       -6.072191   1.000000
   13       -1.957810   1.000000
   14       -1.957808   1.000000
   15        2.824534   1.000000
   16        2.824540   1.000000
   17        4.276251   1.000000
   18        4.276254   1.000000
   19        4.917438   1.000000
   20        4.917439   1.000000
   21        6.068549   0.000000
   22        6.068552   0.000000
   23        7.206440   0.000000
   24        7.206444   0.000000
   25        9.199840   0.000000
   26        9.199840   0.000000
   27       10.979010   0.000000
   28       10.979017   0.000000
   29       11.559632   0.000000
   30       11.559648   0.000000
   31       13.186175   0.000000
   32       13.186211   0.000000
   33       13.438722   0.000000
   34       13.438736   0.000000
   35       15.904170   0.000000