 vasp.5.4.4.18Apr17-6-g9f103f2a35 (build Mar 20 2018 18:07:30) complex           
 executed on             LinuxGNU date 2020.07.03  13:27:57
 running on    8 total cores
 distrk:  each k-point on    8 cores,    1 groups
 distr:  one band on NCORES_PER_BAND=   2 cores,    4 groups


--------------------------------------------------------------------------------------------------------


 INCAR:
 POTCAR:    PAW_PBE Te 08Apr2002                  
 POTCAR:    PAW_PBE Pb_d 06Sep2000                
 POTCAR:    PAW_PBE Te 08Apr2002                  
   VRHFIN =Te: s2p4                                                             
   LEXCH  = PE                                                                  
   EATOM  =   223.2721 eV,   16.4100 Ry                                         
                                                                                
   TITEL  = PAW_PBE Te 08Apr2002                                                
   LULTRA =        F    use ultrasoft PP ?                                      
   IUNSCR =        1    unscreen: 0-lin 1-nonlin 2-no                           
   RPACOR =    2.200    partial core radius                                     
   POMASS =  127.600; ZVAL   =    6.000    mass and valenz                      
   RCORE  =    2.300    outmost cutoff radius                                   
   RWIGS  =    2.900; RWIGS  =    1.535    wigner-seitz radius (au A)           
   ENMAX  =  174.982; ENMIN  =  131.236 eV                                      
   ICORE  =        3    local potential                                         
   LCOR   =        T    correct aug charges                                     
   LPAW   =        T    paw PP                                                  
   EAUG   =  368.792                                                            
   DEXC   =    0.000                                                            
   RMAX   =    2.345    core radius for proj-oper                               
   RAUG   =    1.300    factor for augmentation sphere                          
   RDEP   =    2.397    radius for radial grids                                 
   RDEPT  =    2.174    core radius for aug-charge                              
                                                                                
   Atomic configuration                                                         
   13 entries                                                                   
     n  l   j            E        occ.                                          
     1  0  0.50    -31621.2075   2.0000                                         
     2  0  0.50     -4848.7941   2.0000                                         
     2  1  1.50     -4352.1960   6.0000                                         
     3  0  0.50      -964.9612   2.0000                                         
     3  1  1.50      -803.6179   6.0000                                         
     3  2  2.50      -559.8710  10.0000                                         
     4  0  0.50      -164.3522   2.0000                                         
     4  1  1.50      -114.3756   6.0000                                         
     4  2  2.50       -41.6483  10.0000                                         
     5  0  0.50       -15.1072   2.0000                                         
     5  1  0.50        -5.9526   4.0000                                         
     5  2  1.50        -5.4423   0.0000                                         
     4  3  2.50        -5.4423   0.0000                                         
   Description                                                                  
     l       E           TYP  RCUT    TYP  RCUT                                 
     0    -15.1072389     23  2.300                                             
     0    -16.4678215     23  2.300                                             
     1     -5.9526306     23  2.300                                             
     1     -2.4873968     23  2.300                                             
     2     -5.4423304     23  2.300                                             
     3     -1.3605826     23  2.300                                             
  local pseudopotential read in
  partial core-charges read in
  partial kinetic energy density read in
  atomic valenz-charges read in
  non local Contribution for L=           0  read in
    real space projection operators read in
  non local Contribution for L=           0  read in
    real space projection operators read in
  non local Contribution for L=           1  read in
    real space projection operators read in
  non local Contribution for L=           1  read in
    real space projection operators read in
  non local Contribution for L=           2  read in
    real space projection operators read in
    PAW grid and wavefunctions read in

   number of l-projection  operators is LMAX  =           5
   number of lm-projection operators is LMMAX =          13

 POTCAR:    PAW_PBE Pb_d 06Sep2000                
   VRHFIN =Pb:                                                                  
   LEXCH  = PE                                                                  
   EATOM  =  1661.6185 eV,  122.1255 Ry                                         
                                                                                
   TITEL  = PAW_PBE Pb_d 06Sep2000                                              
   LULTRA =        F    use ultrasoft PP ?                                      
   IUNSCR =        1    unscreen: 0-lin 1-nonlin 2-no                           
   RPACOR =    2.200    partial core radius                                     
   POMASS =  207.200; ZVAL   =   14.000    mass and valenz                      
   RCORE  =    2.500    outmost cutoff radius                                   
   RWIGS  =    3.260; RWIGS  =    1.725    wigner-seitz radius (au A)           
   ENMAX  =  237.835; ENMIN  =  178.376 eV                                      
   ICORE  =        3    local potential                                         
   LCOR   =        T    correct aug charges                                     
   LPAW   =        T    paw PP                                                  
   EAUG   =  391.914                                                            
   DEXC   =    0.000                                                            
   RMAX   =    2.565    core radius for proj-oper                               
   RAUG   =    1.300    factor for augmentation sphere                          
   RDEP   =    2.643    radius for radial grids                                 
   RDEPT  =    2.092    core radius for aug-charge                              
                                                                                
   Atomic configuration                                                         
   16 entries                                                                   
     n  l   j            E        occ.                                          
     1  0  0.50    -88091.8466   2.0000                                         
     2  0  0.50    -15753.4197   2.0000                                         
     2  1  1.50    -13508.1797   6.0000                                         
     3  0  0.50     -3781.7194   2.0000                                         
     3  1  1.50     -3138.2529   6.0000                                         
     3  2  2.50     -2483.2977  10.0000                                         
     4  0  0.50      -856.2895   2.0000                                         
     4  1  1.50      -645.4942   6.0000                                         
     4  2  2.50      -401.8768  10.0000                                         
     4  3  3.50      -132.9059  14.0000                                         
     5  0  0.50      -144.0950   2.0000                                         
     5  1  1.50       -85.7879   6.0000                                         
     5  2  2.50       -21.1769  10.0000                                         
     6  0  0.50       -12.0372   2.0000                                         
     6  1  1.50        -3.4971   2.0000                                         
     5  3  2.50        -2.7212   0.0000                                         
   Description                                                                  
     l       E           TYP  RCUT    TYP  RCUT                                 
     2    -21.1768523     23  2.500                                             
     2      1.3605826     23  2.500                                             
     0    -12.0371562     23  2.500                                             
     0     13.6058260     23  2.500                                             
     1     -3.4971339     23  2.500                                             
     1     13.6058260     23  2.500                                             
     3     -1.3605826      7  2.500                                             
  local pseudopotential read in
  partial core-charges read in
  partial kinetic energy density read in
  atomic valenz-charges read in
  non local Contribution for L=           2  read in
    real space projection operators read in
  non local Contribution for L=           2  read in
    real space projection operators read in
  non local Contribution for L=           0  read in
    real space projection operators read in
  non local Contribution for L=           0  read in
    real space projection operators read in
  non local Contribution for L=           1  read in
    real space projection operators read in
  non local Contribution for L=           1  read in
    real space projection operators read in
    PAW grid and wavefunctions read in

   number of l-projection  operators is LMAX  =           6
   number of lm-projection operators is LMMAX =          18

  PAW_PBE Te 08Apr2002                  :
 energy of atom  1       EATOM= -223.2721
 kinetic energy error for atom=    0.0004 (will be added to EATOM!!)
  PAW_PBE Pb_d 06Sep2000                :
 energy of atom  2       EATOM=-1661.6185
 kinetic energy error for atom=    0.0014 (will be added to EATOM!!)


 POSCAR: Te1 Pb1                                 
  positions in direct lattice
  No initial velocities read in
 exchange correlation table for  LEXCH =        8
   RHO(1)=    0.500       N(1)  =     2000
   RHO(2)=  100.500       N(2)  =     4000



--------------------------------------------------------------------------------------------------------


 ion  position               nearest neighbor table
   1  0.000  0.000  0.000-   2 3.28   2 3.28   2 3.28   2 3.28   2 3.28   2 3.28
   2  0.500  0.500  0.500-   1 3.28   1 3.28   1 3.28   1 3.28   1 3.28   1 3.28


IMPORTANT INFORMATION: All symmetrisations will be switched off!
NOSYMM: (Re-)initialisation of all symmetry stuff for point group C_1.



 KPOINTS: generate with stepsize: 0.01            
  k-points in reciprocal lattice
Space group operators:
 irot       det(A)        alpha          n_x          n_y          n_z        tau_x        tau_y        tau_z
    1     1.000000     0.000000     1.000000     0.000000     0.000000     0.000000     0.000000     0.000000


--------------------------------------------------------------------------------------------------------




 Dimension of arrays:
   k-points           NKPTS =     61   k-points in BZ     NKDIM =     61   number of bands    NBANDS=     60
   number of dos      NEDOS =    301   number of ions     NIONS =      2
   non local maximal  LDIM  =      6   non local SUM 2l+1 LMDIM =     18
   total plane-waves  NPLWV =  64000
   max r-space proj   IRMAX =      1   max aug-charges    IRDMAX= 420444
   dimension x,y,z NGX =    40 NGY =   40 NGZ =   40
   dimension x,y,z NGXF=    80 NGYF=   80 NGZF=   80
   support grid    NGXF=   160 NGYF=  160 NGZF=  160
   ions per type =               1   1
   NGX,Y,Z   is equivalent  to a cutoff of  14.32, 14.32, 14.32 a.u.
   NGXF,Y,Z  is equivalent  to a cutoff of  28.63, 28.63, 28.63 a.u.

 SYSTEM =  PbTe                                    
 POSCAR =  Te1 Pb1                                 

 Startparameter for this run:
   NWRITE =      2    write-flag & timer
   PREC   = accura    normal or accurate (medium, high low for compatibility)
   ISTART =      0    job   : 0-new  1-cont  2-samecut
   ICHARG =     11    charge: 1-file 2-atom 10-const
   ISPIN  =      1    spin polarized calculation?
   LNONCOLLINEAR =      T non collinear calculations
   LSORBIT =      T    spin-orbit coupling
   INIWAV =      1    electr: 0-lowe 1-rand  2-diag
   LASPH  =      F    aspherical Exc in radial PAW
   METAGGA=      F    non-selfconsistent MetaGGA calc.

 Electronic Relaxation 1
   ENCUT  =  600.0 eV  44.10 Ry    6.64 a.u.   9.28  9.28  9.28*2*pi/ulx,y,z
   ENINI  =  600.0     initial cutoff
   ENAUG  =  391.9 eV  augmentation charge cutoff
   NELM   =     60;   NELMIN=  2; NELMDL=  0     # of ELM steps 
   EDIFF  = 0.1E-06   stopping-criterion for ELM
   LREAL  =      F    real-space projection
   NLSPLINE    = F    spline interpolate recip. space projectors
   LCOMPAT=      F    compatible to vasp.4.4
   GGA_COMPAT  = F    GGA compatible to vasp.4.4-vasp.4.6
   LMAXPAW     = -100 max onsite density
   LMAXMIX     =    4 max onsite mixed and CHGCAR
   VOSKOWN=      0    Vosko Wilk Nusair interpolation
   ROPT   =    0.00000   0.00000
 Ionic relaxation
   EDIFFG = -.1E-02   stopping-criterion for IOM
   NSW    =      0    number of steps for IOM
   NBLOCK =      1;   KBLOCK =      1    inner block; outer block 
   IBRION =     -1    ionic relax: 0-MD 1-quasi-New 2-CG
   NFREE  =      0    steps in history (QN), initial steepest desc. (CG)
   ISIF   =      2    stress and relaxation
   IWAVPR =     10    prediction:  0-non 1-charg 2-wave 3-comb
   ISYM   =     -1    0-nonsym 1-usesym 2-fastsym
   LCORR  =      T    Harris-Foulkes like correction to forces

   POTIM  = 0.5000    time-step for ionic-motion
   TEIN   =    0.0    initial temperature
   TEBEG  =    0.0;   TEEND  =   0.0 temperature during run
   SMASS  =  -3.00    Nose mass-parameter (am)
   estimated Nose-frequenzy (Omega)   =  0.10E-29 period in steps =****** mass=  -0.493E-27a.u.
   SCALEE = 1.0000    scale energy and forces
   NPACO  =    256;   APACO  = 16.0  distance and # of slots for P.C.
   PSTRESS=    0.0 pullay stress

  Mass of Ions in am
   POMASS = 127.60207.20
  Ionic Valenz
   ZVAL   =   6.00 14.00
  Atomic Wigner-Seitz radii
   RWIGS  =  -1.00 -1.00
  virtual crystal weights 
   VCA    =   1.00  1.00
   NELECT =      20.0000    total number of electrons
   NUPDOWN=      -1.0000    fix difference up-down

 DOS related values:
   EMIN   =  10.00;   EMAX   =-10.00  energy-range for DOS
   EFERMI =   0.00
   ISMEAR =     0;   SIGMA  =   0.01  broadening in eV -4-tet -1-fermi 0-gaus

 Electronic relaxation 2 (details)
   IALGO  =     58    algorithm
   LDIAG  =      T    sub-space diagonalisation (order eigenvalues)
   LSUBROT=      F    optimize rotation matrix (better conditioning)
   TURBO    =      0    0=normal 1=particle mesh
   IRESTART =      0    0=no restart 2=restart with 2 vectors
   NREBOOT  =      0    no. of reboots
   NMIN     =      0    reboot dimension
   EREF     =   0.00    reference energy to select bands
   IMIX   =      4    mixing-type and parameters
     AMIX     =   0.40;   BMIX     =  1.00
     AMIX_MAG =   1.60;   BMIX_MAG =  1.00
     AMIN     =   0.10
     WC   =   100.;   INIMIX=   1;  MIXPRE=   1;  MAXMIX= -45

 Intra band minimization:
   WEIMIN = 0.0000     energy-eigenvalue tresh-hold
   EBREAK =  0.42E-09  absolut break condition
   DEPER  =   0.30     relativ break condition  

   TIME   =   0.40     timestep for ELM

  volume/ion in A,a.u.               =      35.43       239.07
  Fermi-wavevector in a.u.,A,eV,Ry     =   1.073900  2.029376 15.691065  1.153261
  Thomas-Fermi vector in A             =   2.209713

 Write flags
   LWAVE        =      F    write WAVECAR
   LDOWNSAMPLE  =      F    k-point downsampling of WAVECAR
   LCHARG       =      F    write CHGCAR
   LVTOT        =      F    write LOCPOT, total local potential
   LVHAR        =      F    write LOCPOT, Hartree potential only
   LELF         =      F    write electronic localiz. function (ELF)
   LORBIT       =      0    0 simple, 1 ext, 2 COOP (PROOUT), +10 PAW based schemes


 Dipole corrections
   LMONO  =      F    monopole corrections only (constant potential shift)
   LDIPOL =      F    correct potential (dipole corrections)
   IDIPOL =      0    1-x, 2-y, 3-z, 4-all directions 
   EPSILON=  1.0000000 bulk dielectric constant

 Exchange correlation treatment:
   GGA     =    --    GGA type
   LEXCH   =     8    internal setting for exchange type
   VOSKOWN=      0    Vosko Wilk Nusair interpolation
   LHFCALC =     F    Hartree Fock is set to
   LHFONE  =     F    Hartree Fock one center treatment
   AEXX    =    0.0000 exact exchange contribution

 Linear response parameters
   LEPSILON=     F    determine dielectric tensor
   LRPA    =     F    only Hartree local field effects (RPA)
   LNABLA  =     F    use nabla operator in PAW spheres
   LVEL    =     F    velocity operator in full k-point grid
   LINTERFAST=   F  fast interpolation
   KINTER  =     0    interpolate to denser k-point grid
   CSHIFT  =0.1000    complex shift for real part using Kramers Kronig
   OMEGAMAX=  -1.0    maximum frequency
   DEG_THRESHOLD= 0.2000000E-02 threshold for treating states as degnerate
   RTIME   =   -0.100 relaxation time in fs
  (WPLASMAI=    0.000 imaginary part of plasma frequency in eV, 0.658/RTIME)
   DFIELD  = 0.0000000 0.0000000 0.0000000 field for delta impulse in time

 Orbital magnetization related:
   ORBITALMAG=     F  switch on orbital magnetization
   LCHIMAG   =     F  perturbation theory with respect to B field
   DQ        =  0.001000  dq finite difference perturbation B field
   LLRAUG    =     F  two centre corrections for induced B field



--------------------------------------------------------------------------------------------------------


 Static calculation
 charge density and potential remain constant during run
 non collinear spin polarized calculation
 Conjugate gradient for all bands (Freysoldt, et al. PRB 79, 241103 (2009))
 preconditioned conjugated gradient   charged. constant during bandupdate  
 perform sub-space diagonalisation
    before iterative eigenvector-optimisation
 no mixing
 using additional bands           50
 reciprocal scheme for non local part
 use partial core corrections
 calculate Harris-corrections to forces   (improved forces if not selfconsistent)
 use gradient corrections 
 WARNING: stress and forces are not correct
  (second derivative of E(xc) not defined)
 use of overlap-Matrix (Vanderbilt PP)
 Gauss-broadening in eV      SIGMA  =   0.01


--------------------------------------------------------------------------------------------------------


  energy-cutoff  :      600.00
  volume of cell :       70.85
      direct lattice vectors                 reciprocal lattice vectors
     0.000000000  3.284311990  3.284311990    -0.152238886  0.152238886  0.152238886
     3.284311990  0.000000000  3.284311990     0.152238886 -0.152238886  0.152238886
     3.284311990  3.284311990  0.000000000     0.152238886  0.152238886 -0.152238886

  length of vectors
     4.644718559  4.644718559  4.644718559     0.263685486  0.263685486  0.263685486



 k-points in units of 2pi/SCALE and weight: generate with stepsize: 0.01            
   0.05524795  0.05524795  0.00000015       0.016
   0.04923276  0.05524795  0.00000015       0.016
   0.05224036  0.05524795  0.00000015       0.016
   0.05825554  0.05524795  0.00000015       0.016
   0.06126313  0.05524795  0.00000015       0.016
   0.05524795  0.04923276  0.00000015       0.016
   0.05524795  0.05224036  0.00000015       0.016
   0.05524795  0.05825554  0.00000015       0.016
   0.05524795  0.06126313  0.00000015       0.016
   0.05524795  0.05524795 -0.00601503       0.016
   0.05524795  0.05524795 -0.00300744       0.016
   0.05524795  0.05524795  0.00300774       0.016
   0.05524795  0.05524795  0.00601534       0.016
   0.04923276  0.04923276  0.00000015       0.016
   0.05224036  0.04923276  0.00000015       0.016
   0.05825554  0.04923276  0.00000015       0.016
   0.06126313  0.04923276  0.00000015       0.016
   0.04923276  0.05224036  0.00000015       0.016
   0.05224036  0.05224036  0.00000015       0.016
   0.05825554  0.05224036  0.00000015       0.016
   0.06126313  0.05224036  0.00000015       0.016
   0.04923276  0.05825554  0.00000015       0.016
   0.05224036  0.05825554  0.00000015       0.016
   0.05825554  0.05825554  0.00000015       0.016
   0.06126313  0.05825554  0.00000015       0.016
   0.04923276  0.06126313  0.00000015       0.016
   0.05224036  0.06126313  0.00000015       0.016
   0.05825554  0.06126313  0.00000015       0.016
   0.06126313  0.06126313  0.00000015       0.016
   0.04923276  0.05524795 -0.00601503       0.016
   0.05224036  0.05524795 -0.00601503       0.016
   0.05825554  0.05524795 -0.00601503       0.016
   0.06126313  0.05524795 -0.00601503       0.016
   0.04923276  0.05524795 -0.00300744       0.016
   0.05224036  0.05524795 -0.00300744       0.016
   0.05825554  0.05524795 -0.00300744       0.016
   0.06126313  0.05524795 -0.00300744       0.016
   0.04923276  0.05524795  0.00300774       0.016
   0.05224036  0.05524795  0.00300774       0.016
   0.05825554  0.05524795  0.00300774       0.016
   0.06126313  0.05524795  0.00300774       0.016
   0.04923276  0.05524795  0.00601534       0.016
   0.05224036  0.05524795  0.00601534       0.016
   0.05825554  0.05524795  0.00601534       0.016
   0.06126313  0.05524795  0.00601534       0.016
   0.05524795  0.04923276 -0.00601503       0.016
   0.05524795  0.05224036 -0.00601503       0.016
   0.05524795  0.05825554 -0.00601503       0.016
   0.05524795  0.06126313 -0.00601503       0.016
   0.05524795  0.04923276 -0.00300744       0.016
   0.05524795  0.05224036 -0.00300744       0.016
   0.05524795  0.05825554 -0.00300744       0.016
   0.05524795  0.06126313 -0.00300744       0.016
   0.05524795  0.04923276  0.00300774       0.016
   0.05524795  0.05224036  0.00300774       0.016
   0.05524795  0.05825554  0.00300774       0.016
   0.05524795  0.06126313  0.00300774       0.016
   0.05524795  0.04923276  0.00601534       0.016
   0.05524795  0.05224036  0.00601534       0.016
   0.05524795  0.05825554  0.00601534       0.016
   0.05524795  0.06126313  0.00601534       0.016

 k-points in reciprocal lattice and weights: generate with stepsize: 0.01            
   0.18145200  0.18145200  0.36290300       0.016
   0.18145200  0.16169626  0.34314726       0.016
   0.18145200  0.17157413  0.35302513       0.016
   0.18145200  0.19132987  0.37278087       0.016
   0.18145200  0.20120774  0.38265874       0.016
   0.16169626  0.18145200  0.34314726       0.016
   0.17157413  0.18145200  0.35302513       0.016
   0.19132987  0.18145200  0.37278087       0.016
   0.20120774  0.18145200  0.38265874       0.016
   0.16169626  0.16169626  0.36290300       0.016
   0.17157413  0.17157413  0.36290300       0.016
   0.19132987  0.19132987  0.36290300       0.016
   0.20120774  0.20120774  0.36290300       0.016
   0.16169626  0.16169626  0.32339151       0.016
   0.16169626  0.17157413  0.33326938       0.016
   0.16169626  0.19132987  0.35302513       0.016
   0.16169626  0.20120774  0.36290300       0.016
   0.17157413  0.16169626  0.33326938       0.016
   0.17157413  0.17157413  0.34314726       0.016
   0.17157413  0.19132987  0.36290300       0.016
   0.17157413  0.20120774  0.37278087       0.016
   0.19132987  0.16169626  0.35302513       0.016
   0.19132987  0.17157413  0.36290300       0.016
   0.19132987  0.19132987  0.38265874       0.016
   0.19132987  0.20120774  0.39253662       0.016
   0.20120774  0.16169626  0.36290300       0.016
   0.20120774  0.17157413  0.37278087       0.016
   0.20120774  0.19132987  0.39253662       0.016
   0.20120774  0.20120774  0.40241449       0.016
   0.16169626  0.14194051  0.34314726       0.016
   0.16169626  0.15181838  0.35302513       0.016
   0.16169626  0.17157413  0.37278087       0.016
   0.16169626  0.18145200  0.38265874       0.016
   0.17157413  0.15181838  0.34314726       0.016
   0.17157413  0.16169626  0.35302513       0.016
   0.17157413  0.18145200  0.37278087       0.016
   0.17157413  0.19132987  0.38265874       0.016
   0.19132987  0.17157413  0.34314726       0.016
   0.19132987  0.18145200  0.35302513       0.016
   0.19132987  0.20120774  0.37278087       0.016
   0.19132987  0.21108562  0.38265874       0.016
   0.20120774  0.18145200  0.34314726       0.016
   0.20120774  0.19132987  0.35302513       0.016
   0.20120774  0.21108562  0.37278087       0.016
   0.20120774  0.22096349  0.38265874       0.016
   0.14194051  0.16169626  0.34314726       0.016
   0.15181838  0.16169626  0.35302513       0.016
   0.17157413  0.16169626  0.37278087       0.016
   0.18145200  0.16169626  0.38265874       0.016
   0.15181838  0.17157413  0.34314726       0.016
   0.16169626  0.17157413  0.35302513       0.016
   0.18145200  0.17157413  0.37278087       0.016
   0.19132987  0.17157413  0.38265874       0.016
   0.17157413  0.19132987  0.34314726       0.016
   0.18145200  0.19132987  0.35302513       0.016
   0.20120774  0.19132987  0.37278087       0.016
   0.21108562  0.19132987  0.38265874       0.016
   0.18145200  0.20120774  0.34314726       0.016
   0.19132987  0.20120774  0.35302513       0.016
   0.21108562  0.20120774  0.37278087       0.016
   0.22096349  0.20120774  0.38265874       0.016

 position of ions in fractional coordinates (direct lattice) 
   0.00000000  0.00000000  0.00000000
   0.50000000  0.50000000  0.50000000

 position of ions in cartesian coordinates  (Angst):
   0.00000000  0.00000000  0.00000000
   3.28431199  3.28431199  3.28431199

 Euler angles ALPHA=     0.0000000  BETA=     0.0000000

 transformation matrix from SAXIS to cartesian coordinates
 ---------------------------------------------------------
     1.0000000 m_x    -0.0000000 m_y     0.0000000 m_z
     0.0000000 m_x     1.0000000 m_y     0.0000000 m_z
    -0.0000000 m_x     0.0000000 m_y     1.0000000 m_z

 transformation matrix from cartesian coordinates to SAXIS
 ---------------------------------------------------------
     1.0000000 m_x     0.0000000 m_y    -0.0000000 m_z
    -0.0000000 m_x     1.0000000 m_y     0.0000000 m_z
     0.0000000 m_x     0.0000000 m_y     1.0000000 m_z




--------------------------------------------------------------------------------------------------------


 k-point  1 :   0.1815 0.1815 0.3629  plane waves:    4762
 k-point  2 :   0.1815 0.1617 0.3431  plane waves:    4746
 k-point  3 :   0.1815 0.1716 0.3530  plane waves:    4758
 k-point  4 :   0.1815 0.1913 0.3728  plane waves:    4760
 k-point  5 :   0.1815 0.2012 0.3827  plane waves:    4750
 k-point  6 :   0.1617 0.1815 0.3431  plane waves:    4746
 k-point  7 :   0.1716 0.1815 0.3530  plane waves:    4758
 k-point  8 :   0.1913 0.1815 0.3728  plane waves:    4760
 k-point  9 :   0.2012 0.1815 0.3827  plane waves:    4750
 k-point 10 :   0.1617 0.1617 0.3629  plane waves:    4752
 k-point 11 :   0.1716 0.1716 0.3629  plane waves:    4762
 k-point 12 :   0.1913 0.1913 0.3629  plane waves:    4762
 k-point 13 :   0.2012 0.2012 0.3629  plane waves:    4752
 k-point 14 :   0.1617 0.1617 0.3234  plane waves:    4730
 k-point 15 :   0.1617 0.1716 0.3333  plane waves:    4738
 k-point 16 :   0.1617 0.1913 0.3530  plane waves:    4750
 k-point 17 :   0.1617 0.2012 0.3629  plane waves:    4744
 k-point 18 :   0.1716 0.1617 0.3333  plane waves:    4738
 k-point 19 :   0.1716 0.1716 0.3431  plane waves:    4746
 k-point 20 :   0.1716 0.1913 0.3629  plane waves:    4756
 k-point 21 :   0.1716 0.2012 0.3728  plane waves:    4748
 k-point 22 :   0.1913 0.1617 0.3530  plane waves:    4750
 k-point 23 :   0.1913 0.1716 0.3629  plane waves:    4756
 k-point 24 :   0.1913 0.1913 0.3827  plane waves:    4758
 k-point 25 :   0.1913 0.2012 0.3925  plane waves:    4754
 k-point 26 :   0.2012 0.1617 0.3629  plane waves:    4744
 k-point 27 :   0.2012 0.1716 0.3728  plane waves:    4748
 k-point 28 :   0.2012 0.1913 0.3925  plane waves:    4754
 k-point 29 :   0.2012 0.2012 0.4024  plane waves:    4742
 k-point 30 :   0.1617 0.1419 0.3431  plane waves:    4746
 k-point 31 :   0.1617 0.1518 0.3530  plane waves:    4750
 k-point 32 :   0.1617 0.1716 0.3728  plane waves:    4748
 k-point 33 :   0.1617 0.1815 0.3827  plane waves:    4744
 k-point 34 :   0.1716 0.1518 0.3431  plane waves:    4750
 k-point 35 :   0.1716 0.1617 0.3530  plane waves:    4756
 k-point 36 :   0.1716 0.1815 0.3728  plane waves:    4752
 k-point 37 :   0.1716 0.1913 0.3827  plane waves:    4746
 k-point 38 :   0.1913 0.1716 0.3431  plane waves:    4750
 k-point 39 :   0.1913 0.1815 0.3530  plane waves:    4756
 k-point 40 :   0.1913 0.2012 0.3728  plane waves:    4752
 k-point 41 :   0.1913 0.2111 0.3827  plane waves:    4746
 k-point 42 :   0.2012 0.1815 0.3431  plane waves:    4746
 k-point 43 :   0.2012 0.1913 0.3530  plane waves:    4750
 k-point 44 :   0.2012 0.2111 0.3728  plane waves:    4748
 k-point 45 :   0.2012 0.2210 0.3827  plane waves:    4744
 k-point 46 :   0.1419 0.1617 0.3431  plane waves:    4746
 k-point 47 :   0.1518 0.1617 0.3530  plane waves:    4750
 k-point 48 :   0.1716 0.1617 0.3728  plane waves:    4748
 k-point 49 :   0.1815 0.1617 0.3827  plane waves:    4744
 k-point 50 :   0.1518 0.1716 0.3431  plane waves:    4750
 k-point 51 :   0.1617 0.1716 0.3530  plane waves:    4756
 k-point 52 :   0.1815 0.1716 0.3728  plane waves:    4752
 k-point 53 :   0.1913 0.1716 0.3827  plane waves:    4746
 k-point 54 :   0.1716 0.1913 0.3431  plane waves:    4750
 k-point 55 :   0.1815 0.1913 0.3530  plane waves:    4756
 k-point 56 :   0.2012 0.1913 0.3728  plane waves:    4752
 k-point 57 :   0.2111 0.1913 0.3827  plane waves:    4746
 k-point 58 :   0.1815 0.2012 0.3431  plane waves:    4746
 k-point 59 :   0.1913 0.2012 0.3530  plane waves:    4750
 k-point 60 :   0.2111 0.2012 0.3728  plane waves:    4748
 k-point 61 :   0.2210 0.2012 0.3827  plane waves:    4744

 maximum and minimum number of plane-waves per node :      2386     2358

 maximum number of plane-waves:      4762
 maximum index in each direction: 
   IXMAX=    9   IYMAX=    9   IZMAX=    8
   IXMIN=   -9   IYMIN=   -9   IZMIN=   -9


 parallel 3D FFT for wavefunctions:
    minimum data exchange during FFTs selected (reduces bandwidth)
 parallel 3D FFT for charge:
    minimum data exchange during FFTs selected (reduces bandwidth)


 total amount of memory used by VASP MPI-rank0   196644. kBytes
=======================================================================

   base      :      30000. kBytes
   nonl-proj :      20979. kBytes
   fftplans  :      19686. kBytes
   grid      :      19456. kBytes
   one-center:         62. kBytes
   wavefun   :     106461. kBytes

     INWAV:  cpu time    0.0000: real time    0.0001
 initial charge density was supplied:
 number of electron      20.0000002 magnetization       0.0000029      0.0000029      0.0000029
 keeping initial charge density in first step


--------------------------------------------------------------------------------------------------------


 Maximum index for augmentation-charges        51011 (set IRDMAX)


--------------------------------------------------------------------------------------------------------


 First call to EWALD:  gamma=   0.428
 Maximum number of real-space cells 3x 3x 3
 Maximum number of reciprocal cells 3x 3x 3

    FEWALD:  cpu time    0.0010: real time    0.0009


--------------------------------------- Iteration      1(   1)  ---------------------------------------


    POTLOK:  cpu time    0.2800: real time    0.2822
    SETDIJ:  cpu time    0.3848: real time    0.3907
    TRIAL :  cpu time   10.7970: real time   10.8980
    CORREC:  cpu time    0.0015: real time    0.0016
    --------------------------------------------
      LOOP:  cpu time   11.4951: real time   11.6656

 eigenvalue-minimisations  :  7360
 total energy-change (2. order) : 0.2206744E+03  (-0.1015847E+04)
 number of electron      20.0000002 magnetization       0.0000029      0.0000029      0.0000029
 augmentation part       20.0000002 magnetization       0.0000029      0.0000029      0.0000029

 Free energy of the ion-electron system (eV)
  ---------------------------------------------------
  alpha Z        PSCENC =        34.30176334
  Ewald energy   TEWEN  =     -1366.58178547
  -Hartree energ DENC   =      -513.40574798
  -exchange      EXHF   =         0.00000000
  -V(xc)+E(xc)   XCENC  =         9.71753223
  PAW double counting   =      1878.37875726    -1823.09045373
  entropy T*S    EENTRO =        -0.00005425
  eigenvalues    EBANDS =       116.46564096
  atomic energy  EATOM  =      1884.88874340
  ---------------------------------------------------
  free energy    TOTEN  =       220.67439575 eV

  energy without entropy =      220.67445000  energy(sigma->0) =      220.67442287


--------------------------------------------------------------------------------------------------------




--------------------------------------- Iteration      1(   2)  ---------------------------------------


    TRIAL :  cpu time   10.5892: real time   10.6728
    CORREC:  cpu time    0.0016: real time    0.0016
    --------------------------------------------
      LOOP:  cpu time   10.5912: real time   10.6748

 eigenvalue-minimisations  :  7336
 total energy-change (2. order) :-0.1946503E+03  (-0.1762839E+03)
 number of electron      20.0000002 magnetization       0.0000029      0.0000029      0.0000029
 augmentation part       20.0000002 magnetization       0.0000029      0.0000029      0.0000029

 Free energy of the ion-electron system (eV)
  ---------------------------------------------------
  alpha Z        PSCENC =        34.30176334
  Ewald energy   TEWEN  =     -1366.58178547
  -Hartree energ DENC   =      -513.40574798
  -exchange      EXHF   =         0.00000000
  -V(xc)+E(xc)   XCENC  =         9.71753223
  PAW double counting   =      1878.37875726    -1823.09045373
  entropy T*S    EENTRO =        -0.00009232
  eigenvalues    EBANDS =       -78.18463377
  atomic energy  EATOM  =      1884.88874340
  ---------------------------------------------------
  free energy    TOTEN  =        26.02408295 eV

  energy without entropy =       26.02417527  energy(sigma->0) =       26.02412911


--------------------------------------------------------------------------------------------------------




--------------------------------------- Iteration      1(   3)  ---------------------------------------


    TRIAL :  cpu time   10.6930: real time   10.7541
    CORREC:  cpu time    0.0005: real time    0.0005
    --------------------------------------------
      LOOP:  cpu time   10.6938: real time   10.7550

 eigenvalue-minimisations  :  8408
 total energy-change (2. order) :-0.2799322E+02  (-0.2680626E+02)
 number of electron      20.0000002 magnetization       0.0000029      0.0000029      0.0000029
 augmentation part       20.0000002 magnetization       0.0000029      0.0000029      0.0000029

 Free energy of the ion-electron system (eV)
  ---------------------------------------------------
  alpha Z        PSCENC =        34.30176334
  Ewald energy   TEWEN  =     -1366.58178547
  -Hartree energ DENC   =      -513.40574798
  -exchange      EXHF   =         0.00000000
  -V(xc)+E(xc)   XCENC  =         9.71753223
  PAW double counting   =      1878.37875726    -1823.09045373
  entropy T*S    EENTRO =        -0.00000000
  eigenvalues    EBANDS =      -106.17794313
  atomic energy  EATOM  =      1884.88874340
  ---------------------------------------------------
  free energy    TOTEN  =        -1.96913409 eV

  energy without entropy =       -1.96913409  energy(sigma->0) =       -1.96913409


--------------------------------------------------------------------------------------------------------




--------------------------------------- Iteration      1(   4)  ---------------------------------------


    TRIAL :  cpu time   12.2576: real time   12.3354
    CORREC:  cpu time    0.0005: real time    0.0005
    --------------------------------------------
      LOOP:  cpu time   12.2584: real time   12.3364

 eigenvalue-minimisations  :  9160
 total energy-change (2. order) :-0.1424034E+01  (-0.1418413E+01)
 number of electron      20.0000002 magnetization       0.0000029      0.0000029      0.0000029
 augmentation part       20.0000002 magnetization       0.0000029      0.0000029      0.0000029

 Free energy of the ion-electron system (eV)
  ---------------------------------------------------
  alpha Z        PSCENC =        34.30176334
  Ewald energy   TEWEN  =     -1366.58178547
  -Hartree energ DENC   =      -513.40574798
  -exchange      EXHF   =         0.00000000
  -V(xc)+E(xc)   XCENC  =         9.71753223
  PAW double counting   =      1878.37875726    -1823.09045373
  entropy T*S    EENTRO =        -0.00000000
  eigenvalues    EBANDS =      -107.60197730
  atomic energy  EATOM  =      1884.88874340
  ---------------------------------------------------
  free energy    TOTEN  =        -3.39316826 eV

  energy without entropy =       -3.39316826  energy(sigma->0) =       -3.39316826


--------------------------------------------------------------------------------------------------------




--------------------------------------- Iteration      1(   5)  ---------------------------------------


    TRIAL :  cpu time   14.0586: real time   14.1426
    CORREC:  cpu time    0.0005: real time    0.0005
    --------------------------------------------
      LOOP:  cpu time   14.0595: real time   14.1436

 eigenvalue-minimisations  : 10808
 total energy-change (2. order) :-0.5817484E-01  (-0.5816101E-01)
 number of electron      20.0000002 magnetization       0.0000029      0.0000029      0.0000029
 augmentation part       20.0000002 magnetization       0.0000029      0.0000029      0.0000029

 Free energy of the ion-electron system (eV)
  ---------------------------------------------------
  alpha Z        PSCENC =        34.30176334
  Ewald energy   TEWEN  =     -1366.58178547
  -Hartree energ DENC   =      -513.40574798
  -exchange      EXHF   =         0.00000000
  -V(xc)+E(xc)   XCENC  =         9.71753223
  PAW double counting   =      1878.37875726    -1823.09045373
  entropy T*S    EENTRO =        -0.00000000
  eigenvalues    EBANDS =      -107.66015214
  atomic energy  EATOM  =      1884.88874340
  ---------------------------------------------------
  free energy    TOTEN  =        -3.45134310 eV

  energy without entropy =       -3.45134310  energy(sigma->0) =       -3.45134310


--------------------------------------------------------------------------------------------------------




--------------------------------------- Iteration      1(   6)  ---------------------------------------


    TRIAL :  cpu time    7.0265: real time    7.0694
    CORREC:  cpu time    1.8105: real time    1.8282
    --------------------------------------------
      LOOP:  cpu time    8.8372: real time    8.8979

 eigenvalue-minimisations  :     0
 total energy-change (2. order) : 0.8185452E-11  (-0.6677245E-03)
 number of electron      20.0000002 magnetization       0.0000029      0.0000029      0.0000029
 augmentation part       20.0000002 magnetization       0.0000029      0.0000029      0.0000029

 Free energy of the ion-electron system (eV)
  ---------------------------------------------------
  alpha Z        PSCENC =        34.30176334
  Ewald energy   TEWEN  =     -1366.58178547
  -Hartree energ DENC   =      -513.40574798
  -exchange      EXHF   =         0.00000000
  -V(xc)+E(xc)   XCENC  =         9.71753223
  PAW double counting   =      1878.37875726    -1823.09045373
  entropy T*S    EENTRO =        -0.00000000
  eigenvalues    EBANDS =      -107.66015214
  atomic energy  EATOM  =      1884.88874340
  ---------------------------------------------------
  free energy    TOTEN  =        -3.45134310 eV

  energy without entropy =       -3.45134310  energy(sigma->0) =       -3.45134310


--------------------------------------------------------------------------------------------------------




--------------------------------------- Iteration      1(   7)  ---------------------------------------


    TRIAL :  cpu time    6.3494: real time    6.3879
    CORREC:  cpu time    1.7424: real time    1.7521
    --------------------------------------------
      LOOP:  cpu time    8.0921: real time    8.1404

 eigenvalue-minimisations  :     0
 total energy-change (2. order) :-0.6677243E-03  (-0.2200191E-03)
 number of electron      20.0000002 magnetization       0.0000029      0.0000029      0.0000029
 augmentation part       20.0000002 magnetization       0.0000029      0.0000029      0.0000029

 Free energy of the ion-electron system (eV)
  ---------------------------------------------------
  alpha Z        PSCENC =        34.30176334
  Ewald energy   TEWEN  =     -1366.58178547
  -Hartree energ DENC   =      -513.40574798
  -exchange      EXHF   =         0.00000000
  -V(xc)+E(xc)   XCENC  =         9.71753223
  PAW double counting   =      1878.37875726    -1823.09045373
  entropy T*S    EENTRO =        -0.00000000
  eigenvalues    EBANDS =      -107.66081986
  atomic energy  EATOM  =      1884.88874340
  ---------------------------------------------------
  free energy    TOTEN  =        -3.45201082 eV

  energy without entropy =       -3.45201082  energy(sigma->0) =       -3.45201082


--------------------------------------------------------------------------------------------------------




--------------------------------------- Iteration      1(   8)  ---------------------------------------


    TRIAL :  cpu time    6.5986: real time    6.6391
    CORREC:  cpu time    1.8096: real time    1.8218
    --------------------------------------------
      LOOP:  cpu time    8.4086: real time    8.4614

 eigenvalue-minimisations  :     0
 total energy-change (2. order) :-0.2200155E-03  (-0.7416769E-04)
 number of electron      20.0000002 magnetization       0.0000029      0.0000029      0.0000029
 augmentation part       20.0000002 magnetization       0.0000029      0.0000029      0.0000029

 Free energy of the ion-electron system (eV)
  ---------------------------------------------------
  alpha Z        PSCENC =        34.30176334
  Ewald energy   TEWEN  =     -1366.58178547
  -Hartree energ DENC   =      -513.40574798
  -exchange      EXHF   =         0.00000000
  -V(xc)+E(xc)   XCENC  =         9.71753223
  PAW double counting   =      1878.37875726    -1823.09045373
  entropy T*S    EENTRO =        -0.00000000
  eigenvalues    EBANDS =      -107.66103988
  atomic energy  EATOM  =      1884.88874340
  ---------------------------------------------------
  free energy    TOTEN  =        -3.45223084 eV

  energy without entropy =       -3.45223084  energy(sigma->0) =       -3.45223084


--------------------------------------------------------------------------------------------------------




--------------------------------------- Iteration      1(   9)  ---------------------------------------


    TRIAL :  cpu time    7.0247: real time    7.0708
    CORREC:  cpu time    1.8113: real time    1.8246
    --------------------------------------------
      LOOP:  cpu time    8.8362: real time    8.8957

 eigenvalue-minimisations  :     0
 total energy-change (2. order) :-0.7416597E-04  (-0.1609047E-04)
 number of electron      20.0000002 magnetization       0.0000029      0.0000029      0.0000029
 augmentation part       20.0000002 magnetization       0.0000029      0.0000029      0.0000029

 Free energy of the ion-electron system (eV)
  ---------------------------------------------------
  alpha Z        PSCENC =        34.30176334
  Ewald energy   TEWEN  =     -1366.58178547
  -Hartree energ DENC   =      -513.40574798
  -exchange      EXHF   =         0.00000000
  -V(xc)+E(xc)   XCENC  =         9.71753223
  PAW double counting   =      1878.37875726    -1823.09045373
  entropy T*S    EENTRO =        -0.00000000
  eigenvalues    EBANDS =      -107.66111405
  atomic energy  EATOM  =      1884.88874340
  ---------------------------------------------------
  free energy    TOTEN  =        -3.45230501 eV

  energy without entropy =       -3.45230501  energy(sigma->0) =       -3.45230501


--------------------------------------------------------------------------------------------------------




--------------------------------------- Iteration      1(  10)  ---------------------------------------


    TRIAL :  cpu time    6.9901: real time    7.0396
    CORREC:  cpu time    1.8086: real time    1.8219
    --------------------------------------------
      LOOP:  cpu time    8.7991: real time    8.8619

 eigenvalue-minimisations  :     0
 total energy-change (2. order) :-0.1609031E-04  (-0.3987049E-05)
 number of electron      20.0000002 magnetization       0.0000029      0.0000029      0.0000029
 augmentation part       20.0000002 magnetization       0.0000029      0.0000029      0.0000029

 Free energy of the ion-electron system (eV)
  ---------------------------------------------------
  alpha Z        PSCENC =        34.30176334
  Ewald energy   TEWEN  =     -1366.58178547
  -Hartree energ DENC   =      -513.40574798
  -exchange      EXHF   =         0.00000000
  -V(xc)+E(xc)   XCENC  =         9.71753223
  PAW double counting   =      1878.37875726    -1823.09045373
  entropy T*S    EENTRO =        -0.00000000
  eigenvalues    EBANDS =      -107.66113014
  atomic energy  EATOM  =      1884.88874340
  ---------------------------------------------------
  free energy    TOTEN  =        -3.45232110 eV

  energy without entropy =       -3.45232110  energy(sigma->0) =       -3.45232110


--------------------------------------------------------------------------------------------------------




--------------------------------------- Iteration      1(  11)  ---------------------------------------


    TRIAL :  cpu time    7.0407: real time    7.0826
    CORREC:  cpu time    1.8030: real time    1.8159
    --------------------------------------------
      LOOP:  cpu time    8.8439: real time    8.8986

 eigenvalue-minimisations  :     0
 total energy-change (2. order) :-0.3986953E-05  (-0.7671022E-06)
 number of electron      20.0000002 magnetization       0.0000029      0.0000029      0.0000029
 augmentation part       20.0000002 magnetization       0.0000029      0.0000029      0.0000029

 Free energy of the ion-electron system (eV)
  ---------------------------------------------------
  alpha Z        PSCENC =        34.30176334
  Ewald energy   TEWEN  =     -1366.58178547
  -Hartree energ DENC   =      -513.40574798
  -exchange      EXHF   =         0.00000000
  -V(xc)+E(xc)   XCENC  =         9.71753223
  PAW double counting   =      1878.37875726    -1823.09045373
  entropy T*S    EENTRO =        -0.00000000
  eigenvalues    EBANDS =      -107.66113412
  atomic energy  EATOM  =      1884.88874340
  ---------------------------------------------------
  free energy    TOTEN  =        -3.45232508 eV

  energy without entropy =       -3.45232508  energy(sigma->0) =       -3.45232508


--------------------------------------------------------------------------------------------------------




--------------------------------------- Iteration      1(  12)  ---------------------------------------


    TRIAL :  cpu time    6.2195: real time    6.2427
    CORREC:  cpu time    1.7889: real time    1.8004
    --------------------------------------------
      LOOP:  cpu time    8.0086: real time    8.0435

 eigenvalue-minimisations  :     0
 total energy-change (2. order) :-0.7670972E-06  (-0.2604133E-06)
 number of electron      20.0000002 magnetization       0.0000029      0.0000029      0.0000029
 augmentation part       20.0000002 magnetization       0.0000029      0.0000029      0.0000029

 Free energy of the ion-electron system (eV)
  ---------------------------------------------------
  alpha Z        PSCENC =        34.30176334
  Ewald energy   TEWEN  =     -1366.58178547
  -Hartree energ DENC   =      -513.40574798
  -exchange      EXHF   =         0.00000000
  -V(xc)+E(xc)   XCENC  =         9.71753223
  PAW double counting   =      1878.37875726    -1823.09045373
  entropy T*S    EENTRO =        -0.00000000
  eigenvalues    EBANDS =      -107.66113489
  atomic energy  EATOM  =      1884.88874340
  ---------------------------------------------------
  free energy    TOTEN  =        -3.45232585 eV

  energy without entropy =       -3.45232585  energy(sigma->0) =       -3.45232585


--------------------------------------------------------------------------------------------------------




--------------------------------------- Iteration      1(  13)  ---------------------------------------


    TRIAL :  cpu time    6.8008: real time    6.8401
    CORREC:  cpu time    1.8207: real time    1.8324
    --------------------------------------------
      LOOP:  cpu time    8.6220: real time    8.6732

 eigenvalue-minimisations  :     0
 total energy-change (2. order) :-0.2604120E-06  (-0.3800978E-07)
 number of electron      20.0000002 magnetization       0.0000029      0.0000029      0.0000029
 augmentation part       20.0000002 magnetization       0.0000029      0.0000029      0.0000029

 Free energy of the ion-electron system (eV)
  ---------------------------------------------------
  alpha Z        PSCENC =        34.30176334
  Ewald energy   TEWEN  =     -1366.58178547
  -Hartree energ DENC   =      -513.40574798
  -exchange      EXHF   =         0.00000000
  -V(xc)+E(xc)   XCENC  =         9.71753223
  PAW double counting   =      1878.37875726    -1823.09045373
  entropy T*S    EENTRO =        -0.00000000
  eigenvalues    EBANDS =      -107.66113515
  atomic energy  EATOM  =      1884.88874340
  ---------------------------------------------------
  free energy    TOTEN  =        -3.45232611 eV

  energy without entropy =       -3.45232611  energy(sigma->0) =       -3.45232611


--------------------------------------------------------------------------------------------------------




--------------------------------------- Iteration      1(  14)  ---------------------------------------


    TRIAL :  cpu time    7.0297: real time    7.0651
    CORREC:  cpu time    1.8174: real time    1.8300
    EDDIAG:  cpu time    2.4932: real time    2.5120
    --------------------------------------------
      LOOP:  cpu time   11.3405: real time   11.4073

 eigenvalue-minimisations  :     0
 total energy-change (2. order) :-0.3800983E-07  (-0.1066712E-07)
 number of electron      20.0000002 magnetization       0.0000029      0.0000029      0.0000029
 augmentation part       20.0000002 magnetization       0.0000029      0.0000029      0.0000029

 Free energy of the ion-electron system (eV)
  ---------------------------------------------------
  alpha Z        PSCENC =        34.30176334
  Ewald energy   TEWEN  =     -1366.58178547
  -Hartree energ DENC   =      -513.40574798
  -exchange      EXHF   =         0.00000000
  -V(xc)+E(xc)   XCENC  =         9.71753223
  PAW double counting   =      1878.37875726    -1823.09045373
  entropy T*S    EENTRO =        -0.00000000
  eigenvalues    EBANDS =      -107.66113519
  atomic energy  EATOM  =      1884.88874340
  ---------------------------------------------------
  free energy    TOTEN  =        -3.45232615 eV

  energy without entropy =       -3.45232615  energy(sigma->0) =       -3.45232615


--------------------------------------------------------------------------------------------------------


  average scaling for gradient   1.2731


 average (electrostatic) potential at core
  the test charge radii are     1.1897  1.1541
  (the norm of the test charge is              1.0000)
       1 -88.7235       2 -92.0749



 E-fermi :   5.0353     XC(G=0):  -9.0734     alpha+bet :-10.3015


 k-point     1 :       0.1815    0.1815    0.3629
  band No.  band energies     occupation 
      1     -13.0676      1.00000
      2     -13.0676      1.00000
      3     -13.0647      1.00000
      4     -13.0647      1.00000
      5     -10.5182      1.00000
      6     -10.5182      1.00000
      7     -10.5102      1.00000
      8     -10.5102      1.00000
      9     -10.4976      1.00000
     10     -10.4976      1.00000
     11      -5.9774      1.00000
     12      -5.9774      1.00000
     13      -2.1116      1.00000
     14      -2.1116      1.00000
     15       2.7112      1.00000
     16       2.7112      1.00000
     17       4.2932      1.00000
     18       4.2932      1.00000
     19       4.9631      1.00000
     20       4.9631      1.00000
     21       5.9513      0.00000
     22       5.9513      0.00000
     23       7.0698      0.00000
     24       7.0698      0.00000
     25       9.2399      0.00000
     26       9.2399      0.00000
     27      11.1131      0.00000
     28      11.1131      0.00000
     29      11.6581      0.00000
     30      11.6581      0.00000
     31      13.4278      0.00000
     32      13.4278      0.00000
     33      13.6818      0.00000
     34      13.6818      0.00000
     35      15.9102      0.00000
     36      15.9102      0.00000
     37      16.4620      0.00000
     38      16.4620      0.00000
     39      17.1005      0.00000
     40      17.1005      0.00000
     41      18.1520      0.00000
     42      18.1520      0.00000
     43      20.5721      0.00000
     44      20.5721      0.00000
     45      20.8338      0.00000
     46      20.8338      0.00000
     47      21.2466      0.00000
     48      21.2466      0.00000
     49      21.8381      0.00000
     50      21.8381      0.00000
     51      23.9147      0.00000
     52      23.9148      0.00000
     53      24.8705      0.00000
     54      24.8825      0.00000
     55      25.5702      0.00000
     56      25.6113      0.00000
     57      25.8881      0.00000
     58      25.9488      0.00000
     59      26.1184      0.00000
     60      26.3592      0.00000

 k-point     2 :       0.1815    0.1617    0.3431
  band No.  band energies     occupation 
      1     -13.0676      1.00000
      2     -13.0676      1.00000
      3     -13.0648      1.00000
      4     -13.0648      1.00000
      5     -10.5178      1.00000
      6     -10.5178      1.00000
      7     -10.5101      1.00000
      8     -10.5101      1.00000
      9     -10.4981      1.00000
     10     -10.4981      1.00000
     11      -6.0397      1.00000
     12      -6.0397      1.00000
     13      -2.0094      1.00000
     14      -2.0094      1.00000
     15       2.7868      1.00000
     16       2.7868      1.00000
     17       4.2684      1.00000
     18       4.2684      1.00000
     19       4.9118      1.00000
     20       4.9118      1.00000
     21       6.0490      0.00000
     22       6.0490      0.00000
     23       7.1777      0.00000
     24       7.1777      0.00000
     25       9.2131      0.00000
     26       9.2131      0.00000
     27      10.9713      0.00000
     28      10.9713      0.00000
     29      11.6475      0.00000
     30      11.6475      0.00000
     31      13.2861      0.00000
     32      13.2861      0.00000
     33      13.5034      0.00000
     34      13.5034      0.00000
     35      15.9300      0.00000
     36      15.9300      0.00000
     37      16.1757      0.00000
     38      16.1757      0.00000
     39      16.8508      0.00000
     40      16.8508      0.00000
     41      18.0907      0.00000
     42      18.0907      0.00000
     43      20.6974      0.00000
     44      20.6974      0.00000
     45      20.9234      0.00000
     46      20.9234      0.00000
     47      21.4545      0.00000
     48      21.4545      0.00000
     49      21.9911      0.00000
     50      21.9911      0.00000
     51      24.1487      0.00000
     52      24.1497      0.00000
     53      24.6812      0.00000
     54      24.7002      0.00000
     55      25.7565      0.00000
     56      25.8173      0.00000
     57      26.1310      0.00000
     58      26.1907      0.00000
     59      26.4055      0.00000
     60      26.5659      0.00000

 k-point     3 :       0.1815    0.1716    0.3530
  band No.  band energies     occupation 
      1     -13.0676      1.00000
      2     -13.0676      1.00000
      3     -13.0648      1.00000
      4     -13.0648      1.00000
      5     -10.5180      1.00000
      6     -10.5180      1.00000
      7     -10.5101      1.00000
      8     -10.5101      1.00000
      9     -10.4978      1.00000
     10     -10.4978      1.00000
     11      -6.0093      1.00000
     12      -6.0093      1.00000
     13      -2.0609      1.00000
     14      -2.0609      1.00000
     15       2.7498      1.00000
     16       2.7499      1.00000
     17       4.2874      1.00000
     18       4.2874      1.00000
     19       4.9458      1.00000
     20       4.9458      1.00000
     21       5.9912      0.00000
     22       5.9912      0.00000
     23       7.1139      0.00000
     24       7.1139      0.00000
     25       9.2250      0.00000
     26       9.2250      0.00000
     27      11.0552      0.00000
     28      11.0552      0.00000
     29      11.6367      0.00000
     30      11.6368      0.00000
     31      13.3643      0.00000
     32      13.3643      0.00000
     33      13.5821      0.00000
     34      13.5822      0.00000
     35      15.9522      0.00000
     36      15.9523      0.00000
     37      16.3153      0.00000
     38      16.3153      0.00000
     39      16.9614      0.00000
     40      16.9615      0.00000
     41      18.1017      0.00000
     42      18.1017      0.00000
     43      20.6451      0.00000
     44      20.6452      0.00000
     45      20.8964      0.00000
     46      20.8964      0.00000
     47      21.3302      0.00000
     48      21.3302      0.00000
     49      21.9035      0.00000
     50      21.9035      0.00000
     51      24.0485      0.00000
     52      24.0490      0.00000
     53      24.7958      0.00000
     54      24.8015      0.00000
     55      25.6544      0.00000
     56      25.6717      0.00000
     57      25.9984      0.00000
     58      26.0556      0.00000
     59      26.1067      0.00000
     60      26.3554      0.00000

 k-point     4 :       0.1815    0.1913    0.3728
  band No.  band energies     occupation 
      1     -13.0677      1.00000
      2     -13.0677      1.00000
      3     -13.0646      1.00000
      4     -13.0646      1.00000
      5     -10.5185      1.00000
      6     -10.5185      1.00000
      7     -10.5102      1.00000
      8     -10.5102      1.00000
      9     -10.4973      1.00000
     10     -10.4973      1.00000
     11      -5.9442      1.00000
     12      -5.9442      1.00000
     13      -2.1615      1.00000
     14      -2.1615      1.00000
     15       2.6711      1.00000
     16       2.6712      1.00000
     17       4.2855      1.00000
     18       4.2856      1.00000
     19       4.9543      1.00000
     20       4.9544      1.00000
     21       5.9396      0.00000
     22       5.9396      0.00000
     23       7.0448      0.00000
     24       7.0448      0.00000
     25       9.2573      0.00000
     26       9.2574      0.00000
     27      11.1386      0.00000
     28      11.1386      0.00000
     29      11.7183      0.00000
     30      11.7184      0.00000
     31      13.4813      0.00000
     32      13.4814      0.00000
     33      13.7970      0.00000
     34      13.7970      0.00000
     35      15.8266      0.00000
     36      15.8266      0.00000
     37      16.6152      0.00000
     38      16.6152      0.00000
     39      17.2417      0.00000
     40      17.2417      0.00000
     41      18.2454      0.00000
     42      18.2454      0.00000
     43      20.4794      0.00000
     44      20.4794      0.00000
     45      20.7294      0.00000
     46      20.7294      0.00000
     47      21.2100      0.00000
     48      21.2100      0.00000
     49      21.7948      0.00000
     50      21.7948      0.00000
     51      23.7601      0.00000
     52      23.7602      0.00000
     53      24.8682      0.00000
     54      24.8980      0.00000
     55      25.4376      0.00000
     56      25.4801      0.00000
     57      25.8671      0.00000
     58      25.8998      0.00000
     59      25.9461      0.00000
     60      26.2304      0.00000

 k-point     5 :       0.1815    0.2012    0.3827
  band No.  band energies     occupation 
      1     -13.0677      1.00000
      2     -13.0677      1.00000
      3     -13.0646      1.00000
      4     -13.0646      1.00000
      5     -10.5188      1.00000
      6     -10.5188      1.00000
      7     -10.5102      1.00000
      8     -10.5102      1.00000
      9     -10.4970      1.00000
     10     -10.4970      1.00000
     11      -5.9098      1.00000
     12      -5.9098      1.00000
     13      -2.2101      1.00000
     14      -2.2101      1.00000
     15       2.6301      1.00000
     16       2.6301      1.00000
     17       4.2635      1.00000
     18       4.2635      1.00000
     19       4.9169      1.00000
     20       4.9169      1.00000
     21       5.9604      0.00000
     22       5.9604      0.00000
     23       7.0387      0.00000
     24       7.0387      0.00000
     25       9.2769      0.00000
     26       9.2769      0.00000
     27      11.1362      0.00000
     28      11.1362      0.00000
     29      11.8128      0.00000
     30      11.8128      0.00000
     31      13.5298      0.00000
     32      13.5298      0.00000
     33      13.9222      0.00000
     34      13.9222      0.00000
     35      15.7189      0.00000
     36      15.7189      0.00000
     37      16.7728      0.00000
     38      16.7728      0.00000
     39      17.3682      0.00000
     40      17.3682      0.00000
     41      18.3821      0.00000
     42      18.3821      0.00000
     43      20.3704      0.00000
     44      20.3704      0.00000
     45      20.5967      0.00000
     46      20.5967      0.00000
     47      21.2063      0.00000
     48      21.2063      0.00000
     49      21.7715      0.00000
     50      21.7715      0.00000
     51      23.5889      0.00000
     52      23.5889      0.00000
     53      24.8002      0.00000
     54      24.8072      0.00000
     55      25.2874      0.00000
     56      25.3068      0.00000
     57      25.7053      0.00000
     58      25.8723      0.00000
     59      25.9913      0.00000
     60      26.1307      0.00000

 k-point     6 :       0.1617    0.1815    0.3431
  band No.  band energies     occupation 
      1     -13.0676      1.00000
      2     -13.0676      1.00000
      3     -13.0648      1.00000
      4     -13.0648      1.00000
      5     -10.5178      1.00000
      6     -10.5178      1.00000
      7     -10.5101      1.00000
      8     -10.5101      1.00000
      9     -10.4981      1.00000
     10     -10.4981      1.00000
     11      -6.0397      1.00000
     12      -6.0397      1.00000
     13      -2.0094      1.00000
     14      -2.0094      1.00000
     15       2.7868      1.00000
     16       2.7868      1.00000
     17       4.2684      1.00000
     18       4.2684      1.00000
     19       4.9118      1.00000
     20       4.9118      1.00000
     21       6.0490      0.00000
     22       6.0490      0.00000
     23       7.1777      0.00000
     24       7.1777      0.00000
     25       9.2131      0.00000
     26       9.2131      0.00000
     27      10.9713      0.00000
     28      10.9713      0.00000
     29      11.6475      0.00000
     30      11.6475      0.00000
     31      13.2862      0.00000
     32      13.2862      0.00000
     33      13.5034      0.00000
     34      13.5034      0.00000
     35      15.9300      0.00000
     36      15.9300      0.00000
     37      16.1757      0.00000
     38      16.1757      0.00000
     39      16.8508      0.00000
     40      16.8508      0.00000
     41      18.0907      0.00000
     42      18.0907      0.00000
     43      20.6974      0.00000
     44      20.6974      0.00000
     45      20.9234      0.00000
     46      20.9234      0.00000
     47      21.4545      0.00000
     48      21.4545      0.00000
     49      21.9911      0.00000
     50      21.9911      0.00000
     51      24.1486      0.00000
     52      24.1487      0.00000
     53      24.6813      0.00000
     54      24.6821      0.00000
     55      25.7734      0.00000
     56      25.8089      0.00000
     57      26.1332      0.00000
     58      26.1865      0.00000
     59      26.2136      0.00000
     60      26.5817      0.00000

 k-point     7 :       0.1716    0.1815    0.3530
  band No.  band energies     occupation 
      1     -13.0676      1.00000
      2     -13.0676      1.00000
      3     -13.0648      1.00000
      4     -13.0648      1.00000
      5     -10.5180      1.00000
      6     -10.5180      1.00000
      7     -10.5101      1.00000
      8     -10.5101      1.00000
      9     -10.4978      1.00000
     10     -10.4978      1.00000
     11      -6.0093      1.00000
     12      -6.0093      1.00000
     13      -2.0609      1.00000
     14      -2.0609      1.00000
     15       2.7498      1.00000
     16       2.7499      1.00000
     17       4.2874      1.00000
     18       4.2874      1.00000
     19       4.9458      1.00000
     20       4.9458      1.00000
     21       5.9912      0.00000
     22       5.9912      0.00000
     23       7.1139      0.00000
     24       7.1139      0.00000
     25       9.2250      0.00000
     26       9.2250      0.00000
     27      11.0552      0.00000
     28      11.0552      0.00000
     29      11.6367      0.00000
     30      11.6368      0.00000
     31      13.3644      0.00000
     32      13.3644      0.00000
     33      13.5821      0.00000
     34      13.5821      0.00000
     35      15.9521      0.00000
     36      15.9521      0.00000
     37      16.3153      0.00000
     38      16.3153      0.00000
     39      16.9614      0.00000
     40      16.9615      0.00000
     41      18.1017      0.00000
     42      18.1017      0.00000
     43      20.6451      0.00000
     44      20.6452      0.00000
     45      20.8964      0.00000
     46      20.8964      0.00000
     47      21.3302      0.00000
     48      21.3302      0.00000
     49      21.9035      0.00000
     50      21.9035      0.00000
     51      24.0484      0.00000
     52      24.0486      0.00000
     53      24.7954      0.00000
     54      24.7966      0.00000
     55      25.6522      0.00000
     56      25.6686      0.00000
     57      25.9873      0.00000
     58      26.0190      0.00000
     59      26.1209      0.00000
     60      26.3938      0.00000

 k-point     8 :       0.1913    0.1815    0.3728
  band No.  band energies     occupation 
      1     -13.0677      1.00000
      2     -13.0677      1.00000
      3     -13.0646      1.00000
      4     -13.0646      1.00000
      5     -10.5185      1.00000
      6     -10.5185      1.00000
      7     -10.5102      1.00000
      8     -10.5102      1.00000
      9     -10.4973      1.00000
     10     -10.4973      1.00000
     11      -5.9442      1.00000
     12      -5.9442      1.00000
     13      -2.1615      1.00000
     14      -2.1615      1.00000
     15       2.6711      1.00000
     16       2.6712      1.00000
     17       4.2855      1.00000
     18       4.2856      1.00000
     19       4.9543      1.00000
     20       4.9544      1.00000
     21       5.9396      0.00000
     22       5.9396      0.00000
     23       7.0448      0.00000
     24       7.0448      0.00000
     25       9.2573      0.00000
     26       9.2574      0.00000
     27      11.1386      0.00000
     28      11.1386      0.00000
     29      11.7183      0.00000
     30      11.7184      0.00000
     31      13.4813      0.00000
     32      13.4813      0.00000
     33      13.7970      0.00000
     34      13.7970      0.00000
     35      15.8266      0.00000
     36      15.8266      0.00000
     37      16.6152      0.00000
     38      16.6152      0.00000
     39      17.2417      0.00000
     40      17.2417      0.00000
     41      18.2454      0.00000
     42      18.2454      0.00000
     43      20.4794      0.00000
     44      20.4794      0.00000
     45      20.7294      0.00000
     46      20.7294      0.00000
     47      21.2100      0.00000
     48      21.2100      0.00000
     49      21.7948      0.00000
     50      21.7948      0.00000
     51      23.7601      0.00000
     52      23.7603      0.00000
     53      24.8692      0.00000
     54      24.8780      0.00000
     55      25.4268      0.00000
     56      25.4412      0.00000
     57      25.8772      0.00000
     58      25.9026      0.00000
     59      25.9492      0.00000
     60      26.1461      0.00000

 k-point     9 :       0.2012    0.1815    0.3827
  band No.  band energies     occupation 
      1     -13.0677      1.00000
      2     -13.0677      1.00000
      3     -13.0646      1.00000
      4     -13.0646      1.00000
      5     -10.5188      1.00000
      6     -10.5188      1.00000
      7     -10.5102      1.00000
      8     -10.5102      1.00000
      9     -10.4970      1.00000
     10     -10.4970      1.00000
     11      -5.9098      1.00000
     12      -5.9098      1.00000
     13      -2.2101      1.00000
     14      -2.2101      1.00000
     15       2.6301      1.00000
     16       2.6301      1.00000
     17       4.2635      1.00000
     18       4.2635      1.00000
     19       4.9169      1.00000
     20       4.9169      1.00000
     21       5.9604      0.00000
     22       5.9604      0.00000
     23       7.0387      0.00000
     24       7.0387      0.00000
     25       9.2769      0.00000
     26       9.2769      0.00000
     27      11.1362      0.00000
     28      11.1362      0.00000
     29      11.8128      0.00000
     30      11.8128      0.00000
     31      13.5298      0.00000
     32      13.5298      0.00000
     33      13.9223      0.00000
     34      13.9224      0.00000
     35      15.7189      0.00000
     36      15.7191      0.00000
     37      16.7728      0.00000
     38      16.7728      0.00000
     39      17.3682      0.00000
     40      17.3682      0.00000
     41      18.3821      0.00000
     42      18.3821      0.00000
     43      20.3704      0.00000
     44      20.3704      0.00000
     45      20.5967      0.00000
     46      20.5967      0.00000
     47      21.2063      0.00000
     48      21.2063      0.00000
     49      21.7715      0.00000
     50      21.7715      0.00000
     51      23.5889      0.00000
     52      23.5890      0.00000
     53      24.8004      0.00000
     54      24.8095      0.00000
     55      25.2878      0.00000
     56      25.3741      0.00000
     57      25.7295      0.00000
     58      25.8322      0.00000
     59      26.0280      0.00000
     60      26.1303      0.00000

 k-point    10 :       0.1617    0.1617    0.3629
  band No.  band energies     occupation 
      1     -13.0677      1.00000
      2     -13.0677      1.00000
      3     -13.0647      1.00000
      4     -13.0647      1.00000
      5     -10.5183      1.00000
      6     -10.5183      1.00000
      7     -10.5100      1.00000
      8     -10.5100      1.00000
      9     -10.4976      1.00000
     10     -10.4976      1.00000
     11      -5.9740      1.00000
     12      -5.9740      1.00000
     13      -2.1228      1.00000
     14      -2.1228      1.00000
     15       2.7325      1.00000
     16       2.7325      1.00000
     17       4.2922      1.00000
     18       4.2922      1.00000
     19       4.9607      1.00000
     20       4.9607      1.00000
     21       5.9472      0.00000
     22       5.9472      0.00000
     23       7.0654      0.00000
     24       7.0654      0.00000
     25       9.1962      0.00000
     26       9.1962      0.00000
     27      11.1011      0.00000
     28      11.1011      0.00000
     29      11.6769      0.00000
     30      11.6769      0.00000
     31      13.4839      0.00000
     32      13.4839      0.00000
     33      13.6923      0.00000
     34      13.6923      0.00000
     35      15.9156      0.00000
     36      15.9156      0.00000
     37      16.4873      0.00000
     38      16.4873      0.00000
     39      17.1043      0.00000
     40      17.1043      0.00000
     41      18.1504      0.00000
     42      18.1504      0.00000
     43      20.3702      0.00000
     44      20.3702      0.00000
     45      20.6536      0.00000
     46      20.6536      0.00000
     47      21.4772      0.00000
     48      21.4772      0.00000
     49      22.0098      0.00000
     50      22.0098      0.00000
     51      23.9039      0.00000
     52      23.9041      0.00000
     53      24.8733      0.00000
     54      24.8937      0.00000
     55      25.4509      0.00000
     56      25.4563      0.00000
     57      25.8684      0.00000
     58      25.9561      0.00000
     59      26.1713      0.00000
     60      26.2955      0.00000

 k-point    11 :       0.1716    0.1716    0.3629
  band No.  band energies     occupation 
      1     -13.0677      1.00000
      2     -13.0677      1.00000
      3     -13.0647      1.00000
      4     -13.0647      1.00000
      5     -10.5182      1.00000
      6     -10.5182      1.00000
      7     -10.5101      1.00000
      8     -10.5101      1.00000
      9     -10.4976      1.00000
     10     -10.4976      1.00000
     11      -5.9766      1.00000
     12      -5.9766      1.00000
     13      -2.1144      1.00000
     14      -2.1144      1.00000
     15       2.7165      1.00000
     16       2.7165      1.00000
     17       4.2930      1.00000
     18       4.2930      1.00000
     19       4.9625      1.00000
     20       4.9625      1.00000
     21       5.9503      0.00000
     22       5.9503      0.00000
     23       7.0687      0.00000
     24       7.0687      0.00000
     25       9.2290      0.00000
     26       9.2290      0.00000
     27      11.1098      0.00000
     28      11.1098      0.00000
     29      11.6628      0.00000
     30      11.6628      0.00000
     31      13.4436      0.00000
     32      13.4438      0.00000
     33      13.6830      0.00000
     34      13.6830      0.00000
     35      15.9116      0.00000
     36      15.9118      0.00000
     37      16.4684      0.00000
     38      16.4684      0.00000
     39      17.1014      0.00000
     40      17.1015      0.00000
     41      18.1516      0.00000
     42      18.1516      0.00000
     43      20.5126      0.00000
     44      20.5126      0.00000
     45      20.7792      0.00000
     46      20.7792      0.00000
     47      21.3182      0.00000
     48      21.3182      0.00000
     49      21.8856      0.00000
     50      21.8856      0.00000
     51      23.9119      0.00000
     52      23.9127      0.00000
     53      24.8744      0.00000
     54      24.8753      0.00000
     55      25.5380      0.00000
     56      25.5713      0.00000
     57      25.9384      0.00000
     58      25.9768      0.00000
     59      26.1942      0.00000
     60      26.3874      0.00000

 k-point    12 :       0.1913    0.1913    0.3629
  band No.  band energies     occupation 
      1     -13.0677      1.00000
      2     -13.0677      1.00000
      3     -13.0647      1.00000
      4     -13.0647      1.00000
      5     -10.5182      1.00000
      6     -10.5182      1.00000
      7     -10.5101      1.00000
      8     -10.5101      1.00000
      9     -10.4976      1.00000
     10     -10.4976      1.00000
     11      -5.9766      1.00000
     12      -5.9766      1.00000
     13      -2.1144      1.00000
     14      -2.1144      1.00000
     15       2.7165      1.00000
     16       2.7165      1.00000
     17       4.2930      1.00000
     18       4.2930      1.00000
     19       4.9625      1.00000
     20       4.9625      1.00000
     21       5.9503      0.00000
     22       5.9503      0.00000
     23       7.0687      0.00000
     24       7.0687      0.00000
     25       9.2290      0.00000
     26       9.2290      0.00000
     27      11.1098      0.00000
     28      11.1098      0.00000
     29      11.6628      0.00000
     30      11.6628      0.00000
     31      13.4436      0.00000
     32      13.4436      0.00000
     33      13.6829      0.00000
     34      13.6829      0.00000
     35      15.9116      0.00000
     36      15.9117      0.00000
     37      16.4684      0.00000
     38      16.4684      0.00000
     39      17.1014      0.00000
     40      17.1014      0.00000
     41      18.1516      0.00000
     42      18.1516      0.00000
     43      20.5126      0.00000
     44      20.5126      0.00000
     45      20.7792      0.00000
     46      20.7792      0.00000
     47      21.3182      0.00000
     48      21.3182      0.00000
     49      21.8856      0.00000
     50      21.8856      0.00000
     51      23.9120      0.00000
     52      23.9124      0.00000
     53      24.8752      0.00000
     54      24.8819      0.00000
     55      25.5188      0.00000
     56      25.5605      0.00000
     57      25.8962      0.00000
     58      25.9694      0.00000
     59      26.0651      0.00000
     60      26.2849      0.00000

 k-point    13 :       0.2012    0.2012    0.3629
  band No.  band energies     occupation 
      1     -13.0677      1.00000
      2     -13.0677      1.00000
      3     -13.0647      1.00000
      4     -13.0647      1.00000
      5     -10.5183      1.00000
      6     -10.5183      1.00000
      7     -10.5100      1.00000
      8     -10.5100      1.00000
      9     -10.4976      1.00000
     10     -10.4976      1.00000
     11      -5.9740      1.00000
     12      -5.9740      1.00000
     13      -2.1228      1.00000
     14      -2.1228      1.00000
     15       2.7325      1.00000
     16       2.7325      1.00000
     17       4.2922      1.00000
     18       4.2922      1.00000
     19       4.9607      1.00000
     20       4.9607      1.00000
     21       5.9472      0.00000
     22       5.9472      0.00000
     23       7.0654      0.00000
     24       7.0654      0.00000
     25       9.1962      0.00000
     26       9.1962      0.00000
     27      11.1011      0.00000
     28      11.1011      0.00000
     29      11.6769      0.00000
     30      11.6769      0.00000
     31      13.4838      0.00000
     32      13.4838      0.00000
     33      13.6923      0.00000
     34      13.6923      0.00000
     35      15.9156      0.00000
     36      15.9156      0.00000
     37      16.4873      0.00000
     38      16.4873      0.00000
     39      17.1043      0.00000
     40      17.1043      0.00000
     41      18.1504      0.00000
     42      18.1504      0.00000
     43      20.3701      0.00000
     44      20.3702      0.00000
     45      20.6536      0.00000
     46      20.6536      0.00000
     47      21.4772      0.00000
     48      21.4772      0.00000
     49      22.0098      0.00000
     50      22.0098      0.00000
     51      23.9038      0.00000
     52      23.9040      0.00000
     53      24.8747      0.00000
     54      24.8811      0.00000
     55      25.4465      0.00000
[...]
 -0.000   0.000  -0.000   0.000  -0.000   0.000  12.714   0.000   0.000   0.000  -0.000   0.000  18.326   0.000   0.000   0.000
 -0.000   0.000  -0.000   0.000   0.000  -0.247   0.000   0.000  12.714   0.000   0.000  -0.356   0.000   0.000  18.326   0.000
 -0.000   0.000  -0.000   0.000  18.326   0.000  -0.000   0.000   0.000   0.356  26.426   0.000  -0.000   0.000   0.000   0.513
 -0.000   0.000  -0.000   0.000  -0.000   0.000  18.326   0.000   0.000   0.000  -0.000   0.000  26.426   0.000   0.000   0.000
 -0.000   0.000  -0.000   0.000   0.000  -0.356   0.000   0.000  18.326   0.000   0.000  -0.513   0.000   0.000  26.426   0.000
  0.000   0.000   0.000   0.000  -0.000   0.000  -0.000   0.000  -0.000   0.000  -0.000   0.000  -0.000   0.000  -0.000   0.000
 -0.000   0.000  -0.000   0.000  -0.000   0.000  -0.000   0.000  -0.000   0.000  -0.000   0.000  -0.000   0.000  -0.000   0.000
  0.000   0.000   0.000   0.000   0.000   0.000  -0.000   0.000   0.000   0.000   0.000   0.000  -0.000   0.000   0.000   0.000
  0.000   0.000   0.000   0.000  -0.000   0.000  -0.000   0.000  -0.000   0.000  -0.000   0.000  -0.000   0.000  -0.000   0.000
  0.000   0.000   0.000   0.000   0.000   0.000  -0.000   0.000  -0.000   0.000   0.000   0.000  -0.000   0.000  -0.000   0.000
 pseudopotential strength for first ion, spin component:           2
  0.000  -0.000   0.000  -0.000   0.000   0.000   0.000   0.000   0.000  -0.000   0.000   0.000   0.000   0.000   0.000  -0.000
  0.000  -0.000   0.000  -0.000   0.000   0.000   0.000   0.000   0.000  -0.000   0.000   0.000   0.000   0.000   0.000  -0.000
  0.000   0.000   0.000   0.000   0.000  -0.000   0.000  -0.247  -0.000  -0.000   0.000  -0.000   0.000  -0.356  -0.000  -0.000
  0.000   0.000   0.000   0.000   0.000   0.247   0.000  -0.000  -0.247  -0.000   0.000   0.356   0.000  -0.000  -0.356  -0.000
  0.000  -0.000   0.000  -0.000  -0.000  -0.000   0.247  -0.000   0.000  -0.000  -0.000  -0.000   0.356  -0.000   0.000  -0.000
  0.000   0.000   0.000   0.000   0.000  -0.000   0.000  -0.356  -0.000  -0.000   0.000  -0.000   0.000  -0.513  -0.000  -0.000
  0.000   0.000   0.000   0.000   0.000   0.356   0.000  -0.000  -0.356  -0.000   0.000   0.513   0.000  -0.000  -0.513  -0.000
  0.000  -0.000   0.000  -0.000  -0.000  -0.000   0.356  -0.000   0.000  -0.000  -0.000  -0.000   0.513  -0.000   0.000  -0.000
 -0.000  -0.000  -0.000  -0.000   0.000  -0.000   0.000  -0.000   0.000   0.000   0.000  -0.000   0.000  -0.000   0.000   0.000
  0.000  -0.000   0.000  -0.000   0.000   0.000   0.000   0.000   0.000  -0.000   0.000   0.000   0.000   0.000   0.000  -0.000
 -0.000   0.000  -0.000   0.000  -0.000   0.000   0.000   0.000  -0.000   0.000  -0.000   0.000   0.000   0.000  -0.000   0.000
 -0.000  -0.000  -0.000  -0.000   0.000  -0.000   0.000  -0.000   0.000   0.000   0.000  -0.000   0.000  -0.000   0.000   0.000
  0.000   0.000   0.000   0.000  -0.000  -0.000  -0.000  -0.000   0.000  -0.000  -0.000  -0.000  -0.000  -0.000   0.000  -0.000
 pseudopotential strength for first ion, spin component:           3
  0.000   0.000   0.000   0.000   0.000  -0.000   0.000  -0.000   0.000   0.000   0.000  -0.000   0.000  -0.000   0.000   0.000
  0.000   0.000   0.000   0.000   0.000  -0.000   0.000  -0.000   0.000   0.000   0.000  -0.000   0.000  -0.000   0.000   0.000
  0.000  -0.000   0.000  -0.000   0.000   0.000   0.000  -0.247  -0.000   0.000   0.000   0.000   0.000  -0.356  -0.000   0.000
  0.000  -0.000   0.000  -0.000   0.000   0.247   0.000   0.000   0.247   0.000   0.000   0.356   0.000   0.000   0.356   0.000
  0.000   0.000   0.000   0.000  -0.000   0.000  -0.247   0.000   0.000   0.000  -0.000   0.000  -0.356   0.000   0.000   0.000
  0.000  -0.000   0.000  -0.000   0.000   0.000   0.000  -0.356  -0.000   0.000   0.000   0.000   0.000  -0.513  -0.000   0.000
  0.000  -0.000   0.000  -0.000   0.000   0.356   0.000   0.000   0.356   0.000   0.000   0.513   0.000   0.000   0.513   0.000
  0.000   0.000   0.000   0.000  -0.000   0.000  -0.356   0.000   0.000   0.000  -0.000   0.000  -0.513   0.000   0.000   0.000
 -0.000   0.000  -0.000   0.000   0.000   0.000   0.000   0.000   0.000  -0.000   0.000   0.000   0.000   0.000   0.000  -0.000
  0.000   0.000   0.000   0.000   0.000  -0.000   0.000  -0.000   0.000   0.000   0.000  -0.000   0.000  -0.000   0.000   0.000
 -0.000  -0.000  -0.000  -0.000  -0.000  -0.000   0.000  -0.000  -0.000  -0.000  -0.000  -0.000   0.000  -0.000  -0.000  -0.000
 -0.000   0.000  -0.000   0.000   0.000   0.000   0.000   0.000   0.000  -0.000   0.000   0.000   0.000   0.000   0.000  -0.000
  0.000  -0.000   0.000  -0.000  -0.000   0.000  -0.000   0.000   0.000   0.000  -0.000   0.000  -0.000   0.000   0.000   0.000
 pseudopotential strength for first ion, spin component:           4
 51.584   0.000  56.124   0.000   0.000   0.000   0.000   0.000   0.000   0.000   0.000   0.000   0.000   0.000   0.000   0.000
 56.124   0.000  61.068   0.000   0.000   0.000   0.000   0.000   0.000   0.000   0.000   0.000   0.000   0.000   0.000   0.000
  0.000   0.000   0.000   0.000  12.714   0.000   0.000   0.000  -0.000  -0.247  18.326   0.000   0.000   0.000  -0.000  -0.356
  0.000   0.000   0.000   0.000   0.000   0.000  12.714   0.000  -0.000   0.000   0.000   0.000  18.326   0.000  -0.000   0.000
  0.000   0.000   0.000   0.000  -0.000   0.247  -0.000   0.000  12.714   0.000  -0.000   0.356  -0.000   0.000  18.326   0.000
  0.000   0.000   0.000   0.000  18.326   0.000   0.000   0.000  -0.000  -0.356  26.426   0.000   0.000   0.000  -0.000  -0.513
  0.000   0.000   0.000   0.000   0.000   0.000  18.326   0.000  -0.000   0.000   0.000   0.000  26.426   0.000  -0.000   0.000
  0.000   0.000   0.000   0.000  -0.000   0.356  -0.000   0.000  18.326   0.000  -0.000   0.513  -0.000   0.000  26.426   0.000
 -0.000   0.000  -0.000   0.000   0.000   0.000   0.000   0.000   0.000   0.000   0.000   0.000   0.000   0.000   0.000   0.000
  0.000   0.000   0.000   0.000   0.000   0.000   0.000   0.000   0.000   0.000   0.000   0.000   0.000   0.000   0.000   0.000
 -0.000   0.000  -0.000   0.000  -0.000   0.000   0.000   0.000  -0.000   0.000  -0.000   0.000   0.000   0.000  -0.000   0.000
 -0.000   0.000  -0.000   0.000   0.000   0.000   0.000   0.000   0.000   0.000   0.000   0.000   0.000   0.000   0.000   0.000
 -0.000   0.000  -0.000   0.000  -0.000   0.000   0.000   0.000   0.000   0.000  -0.000   0.000   0.000   0.000   0.000   0.000
 total augmentation occupancy for first ion, spin component:           1
  2.000   0.000   0.000   0.000   0.000   0.000   0.000   0.000   0.000   0.000   0.000   0.000   0.000
  0.000   0.000   0.000   0.000   0.000   0.000   0.000   0.000   0.000   0.000   0.000   0.000   0.000
  0.000   0.000   1.333   0.000   0.000   0.000   0.000   0.000   0.000   0.000   0.000   0.000   0.000
  0.000   0.000   0.000   1.333   0.000   0.000   0.000   0.000   0.000   0.000   0.000   0.000   0.000
  0.000   0.000   0.000   0.000   1.333   0.000   0.000   0.000   0.000   0.000   0.000   0.000   0.000
  0.000   0.000   0.000   0.000   0.000   0.000   0.000   0.000   0.000   0.000   0.000   0.000   0.000
  0.000   0.000   0.000   0.000   0.000   0.000   0.000   0.000   0.000   0.000   0.000   0.000   0.000
  0.000   0.000   0.000   0.000   0.000   0.000   0.000   0.000   0.000   0.000   0.000   0.000   0.000
  0.000   0.000   0.000   0.000   0.000   0.000   0.000   0.000   0.000   0.000   0.000   0.000   0.000
  0.000   0.000   0.000   0.000   0.000   0.000   0.000   0.000   0.000   0.000   0.000   0.000   0.000
  0.000   0.000   0.000   0.000   0.000   0.000   0.000   0.000   0.000   0.000   0.000   0.000   0.000
  0.000   0.000   0.000   0.000   0.000   0.000   0.000   0.000   0.000   0.000   0.000   0.000   0.000
  0.000   0.000   0.000   0.000   0.000   0.000   0.000   0.000   0.000   0.000   0.000   0.000   0.000
 total augmentation occupancy for first ion, spin component:           2
  0.333   0.000   0.000   0.000   0.000   0.000   0.000   0.000   0.000   0.000   0.000   0.000   0.000
  0.000   0.000   0.000   0.000   0.000   0.000   0.000   0.000   0.000   0.000   0.000   0.000   0.000
  0.000   0.000   0.222   0.000   0.000   0.000   0.000   0.000   0.000   0.000   0.000   0.000   0.000
  0.000   0.000   0.000   0.222   0.000   0.000   0.000   0.000   0.000   0.000   0.000   0.000   0.000
  0.000   0.000   0.000   0.000   0.222   0.000   0.000   0.000   0.000   0.000   0.000   0.000   0.000
  0.000   0.000   0.000   0.000   0.000   0.000   0.000   0.000   0.000   0.000   0.000   0.000   0.000
  0.000   0.000   0.000   0.000   0.000   0.000   0.000   0.000   0.000   0.000   0.000   0.000   0.000
  0.000   0.000   0.000   0.000   0.000   0.000   0.000   0.000   0.000   0.000   0.000   0.000   0.000
  0.000   0.000   0.000   0.000   0.000   0.000   0.000   0.000   0.000   0.000   0.000   0.000   0.000
  0.000   0.000   0.000   0.000   0.000   0.000   0.000   0.000   0.000   0.000   0.000   0.000   0.000
  0.000   0.000   0.000   0.000   0.000   0.000   0.000   0.000   0.000   0.000   0.000   0.000   0.000
  0.000   0.000   0.000   0.000   0.000   0.000   0.000   0.000   0.000   0.000   0.000   0.000   0.000
  0.000   0.000   0.000   0.000   0.000   0.000   0.000   0.000   0.000   0.000   0.000   0.000   0.000
 total augmentation occupancy for first ion, spin component:           3
  0.333   0.000   0.000   0.000   0.000   0.000   0.000   0.000   0.000   0.000   0.000   0.000   0.000
  0.000   0.000   0.000   0.000   0.000   0.000   0.000   0.000   0.000   0.000   0.000   0.000   0.000
  0.000   0.000   0.222   0.000   0.000   0.000   0.000   0.000   0.000   0.000   0.000   0.000   0.000
  0.000   0.000   0.000   0.222   0.000   0.000   0.000   0.000   0.000   0.000   0.000   0.000   0.000
  0.000   0.000   0.000   0.000   0.222   0.000   0.000   0.000   0.000   0.000   0.000   0.000   0.000
  0.000   0.000   0.000   0.000   0.000   0.000   0.000   0.000   0.000   0.000   0.000   0.000   0.000
  0.000   0.000   0.000   0.000   0.000   0.000   0.000   0.000   0.000   0.000   0.000   0.000   0.000
  0.000   0.000   0.000   0.000   0.000   0.000   0.000   0.000   0.000   0.000   0.000   0.000   0.000
  0.000   0.000   0.000   0.000   0.000   0.000   0.000   0.000   0.000   0.000   0.000   0.000   0.000
  0.000   0.000   0.000   0.000   0.000   0.000   0.000   0.000   0.000   0.000   0.000   0.000   0.000
  0.000   0.000   0.000   0.000   0.000   0.000   0.000   0.000   0.000   0.000   0.000   0.000   0.000
  0.000   0.000   0.000   0.000   0.000   0.000   0.000   0.000   0.000   0.000   0.000   0.000   0.000
  0.000   0.000   0.000   0.000   0.000   0.000   0.000   0.000   0.000   0.000   0.000   0.000   0.000
 total augmentation occupancy for first ion, spin component:           4
  0.333   0.000   0.000   0.000   0.000   0.000   0.000   0.000   0.000   0.000   0.000   0.000   0.000
  0.000   0.000   0.000   0.000   0.000   0.000   0.000   0.000   0.000   0.000   0.000   0.000   0.000
  0.000   0.000   0.222   0.000   0.000   0.000   0.000   0.000   0.000   0.000   0.000   0.000   0.000
  0.000   0.000   0.000   0.222   0.000   0.000   0.000   0.000   0.000   0.000   0.000   0.000   0.000
  0.000   0.000   0.000   0.000   0.222   0.000   0.000   0.000   0.000   0.000   0.000   0.000   0.000
  0.000   0.000   0.000   0.000   0.000   0.000   0.000   0.000   0.000   0.000   0.000   0.000   0.000
  0.000   0.000   0.000   0.000   0.000   0.000   0.000   0.000   0.000   0.000   0.000   0.000   0.000
  0.000   0.000   0.000   0.000   0.000   0.000   0.000   0.000   0.000   0.000   0.000   0.000   0.000
  0.000   0.000   0.000   0.000   0.000   0.000   0.000   0.000   0.000   0.000   0.000   0.000   0.000
  0.000   0.000   0.000   0.000   0.000   0.000   0.000   0.000   0.000   0.000   0.000   0.000   0.000
  0.000   0.000   0.000   0.000   0.000   0.000   0.000   0.000   0.000   0.000   0.000   0.000   0.000
  0.000   0.000   0.000   0.000   0.000   0.000   0.000   0.000   0.000   0.000   0.000   0.000   0.000
  0.000   0.000   0.000   0.000   0.000   0.000   0.000   0.000   0.000   0.000   0.000   0.000   0.000


------------------------ aborting loop because EDIFF is reached ----------------------------------------


    CHARGE:  cpu time    0.8576: real time    0.8641
    FORLOC:  cpu time    0.0063: real time    0.0065
    FORNL :  cpu time    3.4304: real time    3.4447
    STRESS:  cpu time    9.1556: real time    9.1854
    FORCOR:  cpu time    0.2739: real time    0.2750
    FORHAR:  cpu time    0.0251: real time    0.0251
    OFIELD:  cpu time    0.0026: real time    0.0026

  FORCE on cell =-STRESS in cart. coord.  units (eV):
  Direction    XX          YY          ZZ          XY          YZ          ZX
  --------------------------------------------------------------------------------------
  Alpha Z    34.30176    34.30176    34.30176
  Ewald    -455.52738  -455.52738  -455.52738    -0.00000    -0.00000     0.00000
  Hartree   166.40789   166.40789   175.79882    -1.64339     0.00000     0.00000
  E(xc)     -90.89534   -90.89535   -90.25917     0.03728     0.00000     0.00000
  Local    -128.75350  -128.75350  -139.21665     2.49776     0.00001     0.00001
  n-local   186.39696   186.39696   182.24183    -0.46023    -0.00000    -0.00000
  augment    94.18315    94.18315    94.49107    -0.01956    -0.00001    -0.00001
  Kinetic   207.01115   207.01115   194.24752    -4.46614    -0.00002    -0.00002
  Fock        0.00000     0.00000     0.00000     0.00000     0.00000     0.00000
  -------------------------------------------------------------------------------------
  Total      13.12468    13.12468    -3.92220    -4.05428    -0.00002    -0.00002
  in kB     296.78098   296.78105   -88.69050   -91.67719    -0.00038    -0.00045
  external pressure =      168.29 kB  Pullay stress =        0.00 kB


 VOLUME and BASIS-vectors are now :
 -----------------------------------------------------------------------------
  energy-cutoff  :      600.00
  volume of cell :       70.85
      direct lattice vectors                 reciprocal lattice vectors
     0.000000000  3.284311990  3.284311990    -0.152238886  0.152238886  0.152238886
     3.284311990  0.000000000  3.284311990     0.152238886 -0.152238886  0.152238886
     3.284311990  3.284311990  0.000000000     0.152238886  0.152238886 -0.152238886

  length of vectors
     4.644718559  4.644718559  4.644718559     0.263685486  0.263685486  0.263685486


 FORCES acting on ions
    electron-ion (+dipol)            ewald-force                    non-local-force                 convergence-correction
 -----------------------------------------------------------------------------------------------
   -.644E-06 0.806E-06 -.323E-06   -.250E-14 -.153E-15 -.177E-14   0.875E-06 -.406E-06 0.315E-06   0.962E-07 -.235E-06 0.512E-07
   0.279E-05 -.997E-07 0.801E-05   0.299E-14 -.257E-14 0.172E-14   -.392E-05 -.547E-05 -.116E-04   -.175E-05 0.115E-06 -.405E-05
 -----------------------------------------------------------------------------------------------
   0.215E-05 0.706E-06 0.769E-05   0.491E-15 -.272E-14 -.560E-16   -.305E-05 -.587E-05 -.113E-04   -.165E-05 -.120E-06 -.400E-05


 POSITION                                       TOTAL-FORCE (eV/Angst)
 -----------------------------------------------------------------------------------
      0.00000      0.00000      0.00000         0.000002      0.000003      0.000004
      3.28431      3.28431      3.28431        -0.000002     -0.000003     -0.000004
 -----------------------------------------------------------------------------------
    total drift:                               -0.000003     -0.000005     -0.000008


--------------------------------------------------------------------------------------------------------



  FREE ENERGIE OF THE ION-ELECTRON SYSTEM (eV)
  ---------------------------------------------------
  free  energy   TOTEN  =        -3.45232615 eV

  energy  without entropy=       -3.45232615  energy(sigma->0) =       -3.45232615



--------------------------------------------------------------------------------------------------------


    POTLOK:  cpu time    0.6548: real time    0.6579


--------------------------------------------------------------------------------------------------------


     LOOP+:  cpu time  153.7159: real time  154.7780
    4ORBIT:  cpu time    0.0000: real time    0.0000

 Spin-Orbit-Coupling matrix elements

 Ion:    1  E_soc:     -0.2016916
 l=   1
     0.0000000    -0.0326659    -0.0356915
    -0.0326659     0.0000000    -0.0326659
    -0.0356915    -0.0326659     0.0000000
 l=   2
     0.0000000    -0.0000108     0.0000000    -0.0000108     0.0000541
    -0.0000108     0.0000000     0.0000401    -0.0000042     0.0000346
     0.0000000     0.0000401     0.0000000     0.0000401     0.0000000
    -0.0000108    -0.0000042     0.0000401     0.0000000     0.0000346
     0.0000541     0.0000346     0.0000000     0.0000346     0.0000000
 l=   3
     0.0000000     0.0000000     0.0000000     0.0000000     0.0000000     0.0000000     0.0000000
     0.0000000     0.0000000     0.0000000     0.0000000     0.0000000     0.0000000     0.0000000
     0.0000000     0.0000000     0.0000000     0.0000000     0.0000000     0.0000000     0.0000000
     0.0000000     0.0000000     0.0000000     0.0000000     0.0000000     0.0000000     0.0000000
     0.0000000     0.0000000     0.0000000     0.0000000     0.0000000     0.0000000     0.0000000
     0.0000000     0.0000000     0.0000000     0.0000000     0.0000000     0.0000000     0.0000000
     0.0000000     0.0000000     0.0000000     0.0000000     0.0000000     0.0000000     0.0000000

 Ion:    2  E_soc:     -0.7361481
 l=   1
     0.0000000    -0.0670518    -0.0308628
    -0.0670518     0.0000000    -0.0670518
    -0.0308628    -0.0670518     0.0000000
 l=   2
     0.0000000    -0.0133340     0.0000000    -0.0133341    -0.0538289
    -0.0133340     0.0000000    -0.0408598    -0.0135295    -0.0136808
     0.0000000    -0.0408598     0.0000000    -0.0408598     0.0000000
    -0.0133341    -0.0135295    -0.0408598     0.0000000    -0.0136808
    -0.0538289    -0.0136808     0.0000000    -0.0136808     0.0000000
 l=   3
     0.0000000     0.0000000     0.0000000     0.0000000     0.0000000     0.0000000     0.0000000
     0.0000000     0.0000000     0.0000000     0.0000000     0.0000000     0.0000000     0.0000000
     0.0000000     0.0000000     0.0000000     0.0000000     0.0000000     0.0000000     0.0000000
     0.0000000     0.0000000     0.0000000     0.0000000     0.0000000     0.0000000     0.0000000
     0.0000000     0.0000000     0.0000000     0.0000000     0.0000000     0.0000000     0.0000000
     0.0000000     0.0000000     0.0000000     0.0000000     0.0000000     0.0000000     0.0000000
     0.0000000     0.0000000     0.0000000     0.0000000     0.0000000     0.0000000     0.0000000

 total amount of memory used by VASP MPI-rank0   196644. kBytes
=======================================================================

   base      :      30000. kBytes
   nonl-proj :      20979. kBytes
   fftplans  :      19686. kBytes
   grid      :      19456. kBytes
   one-center:         62. kBytes
   wavefun   :     106461. kBytes

  
  
 General timing and accounting informations for this job:
 ========================================================
  
                  Total CPU time used (sec):      158.748
                            User time (sec):      155.891
                          System time (sec):        2.857
                         Elapsed time (sec):      160.100
  
                   Maximum memory used (kb):      258856.
                   Average memory used (kb):           0.
  
                          Minor page faults:       521222
                          Major page faults:            0
                 Voluntary context switches:         3440
