<?xml version="1.0" encoding="ISO-8859-1"?>
<modeling>
 <generator>
  <i name="program" type="string">vasp </i>
  <i name="version" type="string">5.4.4.18Apr17-6-g9f103f2a35  </i>
  <i name="subversion" type="string">(build Mar 20 2018 18:07:30) complex            parallel </i>
  <i name="platform" type="string">LinuxGNU </i>
  <i name="date" type="string">2020 07 03 </i>
  <i name="time" type="string">13:27:57 </i>
 </generator>
 <incar>
  <i type="string" name="SYSTEM"> PbTe</i>
  <i type="int" name="ISTART">     1</i>
  <i type="string" name="PREC">accurate</i>
  <i type="string" name="ALGO"> A</i>
  <i type="logical" name="ADDGRID"> T  </i>
  <i type="logical" name="LSORBIT"> T  </i>
  <i type="int" name="ISPIN">     1</i>
  <i type="int" name="ICHARG">    11</i>
  <i type="int" name="IBRION">    -1</i>
  <i name="EDIFF">      0.00000010</i>
  <i name="EDIFFG">     -0.00100000</i>
  <i type="int" name="NSW">     0</i>
  <i type="int" name="ISYM">    -1</i>
  <i name="ENCUT">    600.00000000</i>
  <i type="int" name="NBANDS">    60</i>
  <i type="logical" name="LREAL"> F  </i>
  <i type="logical" name="LPLANE"> T  </i>
  <i type="int" name="ISMEAR">     0</i>
  <i name="SIGMA">      0.01000000</i>
  <i type="int" name="LMAXMIX">     4</i>
  <i type="logical" name="LWAVE"> F  </i>
  <i type="logical" name="LCHARG"> F  </i>
  <i type="logical" name="GGA_COMPAT"> F  </i>
  <v type="int" name="KPOINT_BSE">    -1     0     0     0</v>
 </incar>
 <structure name="primitive_cell" >
  <crystal>
   <varray name="basis" >
    <v>       0.00000000       3.28431199       3.28431199 </v>
    <v>       3.28431199       0.00000000       3.28431199 </v>
    <v>       3.28431199       3.28431199       0.00000000 </v>
   </varray>
   <i name="volume">     70.85381075 </i>
   <varray name="rec_basis" >
    <v>      -0.15223889       0.15223889       0.15223889 </v>
    <v>       0.15223889      -0.15223889       0.15223889 </v>
    <v>       0.15223889       0.15223889      -0.15223889 </v>
   </varray>
  </crystal>
  <varray name="positions" >
   <v>       0.00000000       0.00000000       0.00000000 </v>
   <v>      -0.50000000      -0.50000000      -0.50000000 </v>
  </varray>
 </structure>
 <varray name="primitive_index" >
  <v type="int" >        1 </v>
  <v type="int" >        2 </v>
 </varray>
 <kpoints>
  <varray name="kpointlist" >
   <v>       0.18145200       0.18145200       0.36290300 </v>
   <v>       0.18145200       0.16169626       0.34314726 </v>
   <v>       0.18145200       0.17157413       0.35302513 </v>
   <v>       0.18145200       0.19132987       0.37278087 </v>
   <v>       0.18145200       0.20120774       0.38265874 </v>
   <v>       0.16169626       0.18145200       0.34314726 </v>
   <v>       0.17157413       0.18145200       0.35302513 </v>
   <v>       0.19132987       0.18145200       0.37278087 </v>
   <v>       0.20120774       0.18145200       0.38265874 </v>
   <v>       0.16169626       0.16169626       0.36290300 </v>
   <v>       0.17157413       0.17157413       0.36290300 </v>
   <v>       0.19132987       0.19132987       0.36290300 </v>
   <v>       0.20120774       0.20120774       0.36290300 </v>
   <v>       0.16169626       0.16169626       0.32339151 </v>
   <v>       0.16169626       0.17157413       0.33326938 </v>
   <v>       0.16169626       0.19132987       0.35302513 </v>
   <v>       0.16169626       0.20120774       0.36290300 </v>
   <v>       0.17157413       0.16169626       0.33326938 </v>
   <v>       0.17157413       0.17157413       0.34314726 </v>
   <v>       0.17157413       0.19132987       0.36290300 </v>
   <v>       0.17157413       0.20120774       0.37278087 </v>
   <v>       0.19132987       0.16169626       0.35302513 </v>
   <v>       0.19132987       0.17157413       0.36290300 </v>
   <v>       0.19132987       0.19132987       0.38265874 </v>
   <v>       0.19132987       0.20120774       0.39253662 </v>
   <v>       0.20120774       0.16169626       0.36290300 </v>
   <v>       0.20120774       0.17157413       0.37278087 </v>
   <v>       0.20120774       0.19132987       0.39253662 </v>
   <v>       0.20120774       0.20120774       0.40241449 </v>
   <v>       0.16169626       0.14194051       0.34314726 </v>
   <v>       0.16169626       0.15181838       0.35302513 </v>
   <v>       0.16169626       0.17157413       0.37278087 </v>
   <v>       0.16169626       0.18145200       0.38265874 </v>
   <v>       0.17157413       0.15181838       0.34314726 </v>
   <v>       0.17157413       0.16169626       0.35302513 </v>
   <v>       0.17157413       0.18145200       0.37278087 </v>
   <v>       0.17157413       0.19132987       0.38265874 </v>
   <v>       0.19132987       0.17157413       0.34314726 </v>
   <v>       0.19132987       0.18145200       0.35302513 </v>
   <v>       0.19132987       0.20120774       0.37278087 </v>
   <v>       0.19132987       0.21108562       0.38265874 </v>
   <v>       0.20120774       0.18145200       0.34314726 </v>
   <v>       0.20120774       0.19132987       0.35302513 </v>
   <v>       0.20120774       0.21108562       0.37278087 </v>
   <v>       0.20120774       0.22096349       0.38265874 </v>
   <v>       0.14194051       0.16169626       0.34314726 </v>
   <v>       0.15181838       0.16169626       0.35302513 </v>
   <v>       0.17157413       0.16169626       0.37278087 </v>
   <v>       0.18145200       0.16169626       0.38265874 </v>
   <v>       0.15181838       0.17157413       0.34314726 </v>
   <v>       0.16169626       0.17157413       0.35302513 </v>
   <v>       0.18145200       0.17157413       0.37278087 </v>
   <v>       0.19132987       0.17157413       0.38265874 </v>
   <v>       0.17157413       0.19132987       0.34314726 </v>
   <v>       0.18145200       0.19132987       0.35302513 </v>
   <v>       0.20120774       0.19132987       0.37278087 </v>
   <v>       0.21108562       0.19132987       0.38265874 </v>
   <v>       0.18145200       0.20120774       0.34314726 </v>
   <v>       0.19132987       0.20120774       0.35302513 </v>
   <v>       0.21108562       0.20120774       0.37278087 </v>
   <v>       0.22096349       0.20120774       0.38265874 </v>
  </varray>
  <varray name="weights" >
   <v>       0.01639344 </v>
   <v>       0.01639344 </v>
   <v>       0.01639344 </v>
   <v>       0.01639344 </v>
   <v>       0.01639344 </v>
   <v>       0.01639344 </v>
   <v>       0.01639344 </v>
   <v>       0.01639344 </v>
   <v>       0.01639344 </v>
   <v>       0.01639344 </v>
   <v>       0.01639344 </v>
   <v>       0.01639344 </v>
   <v>       0.01639344 </v>
   <v>       0.01639344 </v>
   <v>       0.01639344 </v>
   <v>       0.01639344 </v>
   <v>       0.01639344 </v>
   <v>       0.01639344 </v>
   <v>       0.01639344 </v>
   <v>       0.01639344 </v>
   <v>       0.01639344 </v>
   <v>       0.01639344 </v>
   <v>       0.01639344 </v>
   <v>       0.01639344 </v>
   <v>       0.01639344 </v>
   <v>       0.01639344 </v>
   <v>       0.01639344 </v>
   <v>       0.01639344 </v>
   <v>       0.01639344 </v>
   <v>       0.01639344 </v>
   <v>       0.01639344 </v>
   <v>       0.01639344 </v>
   <v>       0.01639344 </v>
   <v>       0.01639344 </v>
   <v>       0.01639344 </v>
   <v>       0.01639344 </v>
   <v>       0.01639344 </v>
   <v>       0.01639344 </v>
   <v>       0.01639344 </v>
   <v>       0.01639344 </v>
   <v>       0.01639344 </v>
   <v>       0.01639344 </v>
   <v>       0.01639344 </v>
   <v>       0.01639344 </v>
   <v>       0.01639344 </v>
   <v>       0.01639344 </v>
   <v>       0.01639344 </v>
   <v>       0.01639344 </v>
   <v>       0.01639344 </v>
   <v>       0.01639344 </v>
   <v>       0.01639344 </v>
   <v>       0.01639344 </v>
   <v>       0.01639344 </v>
   <v>       0.01639344 </v>
   <v>       0.01639344 </v>
   <v>       0.01639344 </v>
   <v>       0.01639344 </v>
   <v>       0.01639344 </v>
   <v>       0.01639344 </v>
   <v>       0.01639344 </v>
   <v>       0.01639344 </v>
  </varray>
 </kpoints>
 <parameters>
  <separator name="general" >
   <i type="string" name="SYSTEM">PbTe</i>
   <i type="logical" name="LCOMPAT"> F  </i>
  </separator>
  <separator name="electronic" >
   <i type="string" name="PREC">accura</i>
   <i name="ENMAX">    600.00000000</i>
   <i name="ENAUG">    391.91400000</i>
   <i name="EDIFF">      0.00000010</i>
   <i type="int" name="IALGO">    58</i>
   <i type="int" name="IWAVPR">    10</i>
   <i type="int" name="NBANDS">    60</i>
   <i name="NELECT">     20.00000000</i>
   <i type="int" name="TURBO">     0</i>
   <i type="int" name="IRESTART">     0</i>
   <i type="int" name="NREBOOT">     0</i>
   <i type="int" name="NMIN">     0</i>
   <i name="EREF">      0.00000000</i>
   <separator name="electronic smearing" >
    <i type="int" name="ISMEAR">     0</i>
    <i name="SIGMA">      0.01000000</i>
    <i name="KSPACING">      0.50000000</i>
    <i type="logical" name="KGAMMA"> T  </i>
   </separator>
   <separator name="electronic projectors" >
    <i type="logical" name="LREAL"> F  </i>
    <v name="ROPT">      0.00000000      0.00000000</v>
    <i type="int" name="LMAXPAW">  -100</i>
    <i type="int" name="LMAXMIX">     4</i>
    <i type="logical" name="NLSPLINE"> F  </i>
   </separator>
   <separator name="electronic startup" >
    <i type="int" name="ISTART">     0</i>
    <i type="int" name="ICHARG">    11</i>
    <i type="int" name="INIWAV">     1</i>
   </separator>
   <separator name="electronic spin" >
    <i type="int" name="ISPIN">     1</i>
    <i type="logical" name="LNONCOLLINEAR"> T  </i>
    <v name="MAGMOM">      1.00000000      1.00000000      1.00000000      1.00000000      1.00000000      1.00000000</v>
    <i name="NUPDOWN">     -1.00000000</i>
    <i type="logical" name="LSORBIT"> T  </i>
    <v name="SAXIS">      0.00000000      0.00000000      1.00000000</v>
    <i type="logical" name="LSPIRAL"> F  </i>
    <v name="QSPIRAL">      0.00000000      0.00000000      0.00000000</v>
    <i type="logical" name="LZEROZ"> F  </i>
   </separator>
   <separator name="electronic exchange-correlation" >
    <i type="logical" name="LASPH"> F  </i>
    <i type="logical" name="LMETAGGA"> F  </i>
   </separator>
   <separator name="electronic convergence" >
    <i type="int" name="NELM">    60</i>
    <i type="int" name="NELMDL">     0</i>
    <i type="int" name="NELMIN">     2</i>
    <i name="ENINI">    600.00000000</i>
    <separator name="electronic convergence detail" >
     <i type="logical" name="LDIAG"> T  </i>
     <i type="logical" name="LSUBROT"> F  </i>
     <i name="WEIMIN">      0.00000000</i>
     <i name="EBREAK">      0.00000000</i>
     <i name="DEPER">      0.30000000</i>
     <i type="int" name="NRMM">     4</i>
     <i name="TIME">      0.40000000</i>
    </separator>
   </separator>
   <separator name="electronic mixer" >
    <i name="AMIX">      0.40000000</i>
    <i name="BMIX">      1.00000000</i>
    <i name="AMIN">      0.10000000</i>
    <i name="AMIX_MAG">      1.60000000</i>
    <i name="BMIX_MAG">      1.00000000</i>
    <separator name="electronic mixer details" >
     <i type="int" name="IMIX">     4</i>
     <i type="logical" name="MIXFIRST"> F  </i>
     <i type="int" name="MAXMIX">   -45</i>
     <i name="WC">    100.00000000</i>
     <i type="int" name="INIMIX">     1</i>
     <i type="int" name="MIXPRE">     1</i>
     <i type="int" name="MREMOVE">     5</i>
    </separator>
   </separator>
   <separator name="electronic dipolcorrection" >
    <i type="logical" name="LDIPOL"> F  </i>
    <i type="logical" name="LMONO"> F  </i>
    <i type="int" name="IDIPOL">     0</i>
    <i name="EPSILON">      1.00000000</i>
    <v name="DIPOL">   -100.00000000   -100.00000000   -100.00000000</v>
    <i name="EFIELD">      0.00000000</i>
   </separator>
  </separator>
  <separator name="grids" >
   <i type="int" name="NGX">    40</i>
   <i type="int" name="NGY">    40</i>
   <i type="int" name="NGZ">    40</i>
   <i type="int" name="NGXF">    80</i>
   <i type="int" name="NGYF">    80</i>
   <i type="int" name="NGZF">    80</i>
   <i type="logical" name="ADDGRID"> T  </i>
  </separator>
  <separator name="ionic" >
   <i type="int" name="NSW">     0</i>
   <i type="int" name="IBRION">    -1</i>
   <i type="int" name="MDALGO">     0</i>
   <i type="int" name="ISIF">     2</i>
   <i name="PSTRESS">      0.00000000</i>
   <i name="EDIFFG">     -0.00100000</i>
   <i type="int" name="NFREE">     0</i>
   <i name="POTIM">      0.50000000</i>
   <i name="SMASS">     -3.00000000</i>
   <i name="SCALEE">      1.00000000</i>
  </separator>
  <separator name="ionic md" >
   <i name="TEBEG">      0.00010000</i>
   <i name="TEEND">      0.00010000</i>
   <i type="int" name="NBLOCK">     1</i>
   <i type="int" name="KBLOCK">     1</i>
   <i type="int" name="NPACO">   256</i>
   <i name="APACO">     16.00000000</i>
  </separator>
  <separator name="symmetry" >
   <i type="int" name="ISYM">    -1</i>
   <i name="SYMPREC">      0.00001000</i>
  </separator>
  <separator name="dos" >
   <i type="int" name="LORBIT">     0</i>
   <v name="RWIGS">     -1.00000000     -1.00000000</v>
   <i type="int" name="NEDOS">   301</i>
   <i name="EMIN">     10.00000000</i>
   <i name="EMAX">    -10.00000000</i>
   <i name="EFERMI">      0.00000000</i>
  </separator>
  <separator name="writing" >
   <i type="int" name="NWRITE">     2</i>
   <i type="logical" name="LWAVE"> F  </i>
   <i type="logical" name="LDOWNSAMPLE"> F  </i>
   <i type="logical" name="LCHARG"> F  </i>
   <i type="logical" name="LPARD"> F  </i>
   <i type="logical" name="LVTOT"> F  </i>
   <i type="logical" name="LVHAR"> F  </i>
   <i type="logical" name="LELF"> F  </i>
   <i type="logical" name="LOPTICS"> F  </i>
   <v name="STM">      0.00000000      0.00000000      0.00000000      0.00000000      0.00000000      0.00000000      0.00000000</v>
  </separator>
  <separator name="performance" >
   <i type="int" name="NPAR">     4</i>
   <i type="int" name="NSIM">     4</i>
   <i type="int" name="NBLK">    -1</i>
   <i type="logical" name="LPLANE"> T  </i>
   <i type="logical" name="LSCALAPACK"> T  </i>
   <i type="logical" name="LSCAAWARE"> F  </i>
   <i type="logical" name="LSCALU"> F  </i>
   <i type="logical" name="LASYNC"> F  </i>
   <i type="logical" name="LORBITALREAL"> F  </i>
  </separator>
  <separator name="miscellaneous" >
   <i type="int" name="IDIOT">     3</i>
   <i type="int" name="ISPECIAL">     0</i>
   <i type="logical" name="LMUSIC"> F  </i>
   <v name="POMASS">    127.60000000    207.20000000</v>
   <v name="DARWINR">      0.00000000      0.00000000</v>
   <v name="DARWINV">      1.00000000      1.00000000</v>
   <i type="logical" name="LCORR"> T  </i>
  </separator>
  <i type="logical" name="GGA_COMPAT"> F  </i>
  <i type="logical" name="LBERRY"> F  </i>
  <i type="int" name="ICORELEVEL">     0</i>
  <i type="logical" name="LDAU"> F  </i>
  <i type="int" name="I_CONSTRAINED_M">     0</i>
  <separator name="electronic exchange-correlation" >
   <i type="string" name="GGA">--</i>
   <i type="int" name="VOSKOWN">     0</i>
   <i type="logical" name="LHFCALC"> F  </i>
   <i type="string" name="PRECFOCK"></i>
   <i type="logical" name="LSYMGRAD"> F  </i>
   <i type="logical" name="LHFONE"> F  </i>
   <i type="logical" name="LRHFCALC"> F  </i>
   <i type="logical" name="LTHOMAS"> F  </i>
   <i type="logical" name="LMODELHF"> F  </i>
   <i name="ENCUT4O">     -1.00000000</i>
   <i type="int" name="EXXOEP">     0</i>
   <i type="int" name="FOURORBIT">     0</i>
   <i name="AEXX">      0.00000000</i>
   <i name="HFALPHA">      0.00000000</i>
   <i name="MCALPHA">      0.00000000</i>
   <i name="ALDAX">      1.00000000</i>
   <i name="AGGAX">      1.00000000</i>
   <i name="ALDAC">      1.00000000</i>
   <i name="AGGAC">      1.00000000</i>
   <i type="int" name="NKREDX">     1</i>
   <i type="int" name="NKREDY">     1</i>
   <i type="int" name="NKREDZ">     1</i>
   <i type="logical" name="SHIFTRED"> F  </i>
   <i type="logical" name="ODDONLY"> F  </i>
   <i type="logical" name="EVENONLY"> F  </i>
   <i type="int" name="LMAXFOCK">     0</i>
   <i type="int" name="NMAXFOCKAE">     0</i>
   <i type="logical" name="LFOCKAEDFT"> F  </i>
   <i name="HFSCREEN">      0.00000000</i>
   <i name="HFSCREENC">      0.00000000</i>
   <i type="int" name="NBANDSGWLOW">     0</i>
  </separator>
  <separator name="vdW DFT" >
   <i type="logical" name="LUSE_VDW"> F  </i>
   <i name="Zab_VDW">     -0.84910000</i>
   <i name="PARAM1">      0.12340000</i>
   <i name="PARAM2">      1.00000000</i>
   <i name="PARAM3">      0.00000000</i>
  </separator>
  <separator name="model GW" >
   <i type="int" name="MODEL_GW">     0</i>
   <i name="MODEL_EPS0">     21.25614323</i>
   <i name="MODEL_ALPHA">      1.00000000</i>
  </separator>
  <separator name="linear response parameters" >
   <i type="logical" name="LEPSILON"> F  </i>
   <i type="logical" name="LRPA"> F  </i>
   <i type="logical" name="LNABLA"> F  </i>
   <i type="logical" name="LVEL"> F  </i>
   <i type="int" name="KINTER">     0</i>
   <i name="CSHIFT">      0.10000000</i>
   <i name="OMEGAMAX">     -1.00000000</i>
   <i name="DEG_THRESHOLD">      0.00200000</i>
   <i name="RTIME">     -0.10000000</i>
   <i name="WPLASMAI">      0.00000000</i>
   <v name="DFIELD">      0.00000000      0.00000000      0.00000000</v>
   <v name="WPLASMA">      0.00000000      0.00000000      0.00000000      0.00000000      0.00000000      0.00000000      0.00000000      0.00000000      0.00000000</v>
  </separator>
  <separator name="orbital magnetization" >
   <i type="logical" name="NUCIND"> F  </i>
   <v name="MAGPOS">      0.00000000      0.00000000      0.00000000</v>
   <i type="logical" name="LNICSALL"> T  </i>
   <i type="logical" name="ORBITALMAG"> F  </i>
   <i type="logical" name="LMAGBLOCH"> F  </i>
   <i type="logical" name="LCHIMAG"> F  </i>
   <i type="logical" name="LGAUGE"> T  </i>
   <i type="int" name="MAGATOM">     0</i>
   <v name="MAGDIPOL">      0.00000000      0.00000000      0.00000000</v>
   <v name="AVECCONST">      0.00000000      0.00000000      0.00000000</v>
  </separator>
  <separator name="response functions" >
   <i type="logical" name="LADDER"> F  </i>
   <i type="logical" name="LRPAFORCE"> F  </i>
   <i type="logical" name="LFXC"> F  </i>
   <i type="logical" name="LHARTREE"> T  </i>
   <i type="int" name="IBSE">     0</i>
   <v type="int" name="KPOINT">    -1     0     0     0</v>
   <i type="logical" name="LTCTE"> F  </i>
   <i type="logical" name="LTETE"> F  </i>
   <i type="logical" name="LTRIPLET"> F  </i>
   <i type="logical" name="LFXCEPS"> F  </i>
   <i type="logical" name="LFXHEG"> F  </i>
   <i type="int" name="NATURALO">     2</i>
   <i type="logical" name="L2ORDER"> F  </i>
   <i type="logical" name="LMP2LT"> F  </i>
   <i type="logical" name="LUSEW"> F  </i>
   <i name="ENCUTGW">     -2.00000000</i>
   <i name="ENCUTGWSOFT">     -2.00000000</i>
   <i name="ENCUTLF">     -1.00000000</i>
   <i type="int" name="LMAXMP2">    -1</i>
   <i name="SCISSOR">      0.00000000</i>
   <i type="int" name="NOMEGA">     0</i>
   <i type="int" name="NOMEGAR">     0</i>
   <i type="int" name="NBANDSGW">    -1</i>
   <i type="int" name="NBANDSO">    -1</i>
   <i type="int" name="NBANDSV">    -1</i>
   <i type="int" name="NELM">     1</i>
   <i type="int" name="NELMHF">     1</i>
   <i type="int" name="DIM">     3</i>
   <i type="int" name="ANTIRES">     0</i>
   <i name="OMEGAMAX">    -30.00000000</i>
   <i name="OMEGAMIN">    -30.00000000</i>
   <i name="OMEGATL">   -200.00000000</i>
   <i type="int" name="OMEGAGRID">   140</i>
   <i name="CSHIFT">     -0.10000000</i>
   <i type="logical" name="SELFENERGY"> F  </i>
   <i type="logical" name="LSPECTRAL"> F  </i>
   <i type="logical" name="LSPECTRALGW"> F  </i>
   <i type="logical" name="LSINGLES"> F  </i>
   <i type="logical" name="LFERMIGW"> F  </i>
   <i type="logical" name="ODDONLYGW"> F  </i>
   <i type="logical" name="EVENONLYGW"> F  </i>
   <i type="int" name="NKREDLFX">     1</i>
   <i type="int" name="NKREDLFY">     1</i>
   <i type="int" name="NKREDLFZ">     1</i>
   <i type="int" name="MAXMEM">  2800</i>
   <i type="int" name="TELESCOPE">     0</i>
   <i type="int" name="TAUPAR">     1</i>
   <i type="int" name="OMEGAPAR">    -1</i>
   <i name="LAMBDA">      1.00000000</i>
  </separator>
  <separator name="External order field" >
   <i name="OFIELD_KAPPA">      0.00000000</i>
   <v name="OFIELD_K">      0.00000000      0.00000000      0.00000000</v>
   <i name="OFIELD_Q6_NEAR">      0.00000000</i>
   <i name="OFIELD_Q6_FAR">      0.00000000</i>
   <i name="OFIELD_A">      0.00000000</i>
  </separator>
 </parameters>
 <atominfo>
  <atoms>       2 </atoms>
  <types>       2 </types>
  <array name="atoms" >
   <dimension dim="1">ion</dimension>
   <field type="string">element</field>
   <field type="int">atomtype</field>
   <set>
    <rc><c>Te</c><c>   1</c></rc>
    <rc><c>Pb</c><c>   2</c></rc>
   </set>
  </array>
  <array name="atomtypes" >
   <dimension dim="1">type</dimension>
   <field type="int">atomspertype</field>
   <field type="string">element</field>
   <field>mass</field>
   <field>valence</field>
   <field type="string">pseudopotential</field>
   <set>
    <rc><c>   1</c><c>Te</c><c>    127.60000000</c><c>      6.00000000</c><c>  PAW_PBE Te 08Apr2002                  </c></rc>
    <rc><c>   1</c><c>Pb</c><c>    207.20000000</c><c>     14.00000000</c><c>  PAW_PBE Pb_d 06Sep2000                </c></rc>
   </set>
  </array>
 </atominfo>
 <structure name="initialpos" >
  <crystal>
   <varray name="basis" >
    <v>       0.00000000       3.28431199       3.28431199 </v>
    <v>       3.28431199       0.00000000       3.28431199 </v>
    <v>       3.28431199       3.28431199       0.00000000 </v>
   </varray>
   <i name="volume">     70.85381075 </i>
   <varray name="rec_basis" >
    <v>      -0.15223889       0.15223889       0.15223889 </v>
    <v>       0.15223889      -0.15223889       0.15223889 </v>
    <v>       0.15223889       0.15223889      -0.15223889 </v>
   </varray>
  </crystal>
  <varray name="positions" >
   <v>       0.00000000       0.00000000       0.00000000 </v>
   <v>       0.50000000       0.50000000       0.50000000 </v>
  </varray>
 </structure>
 <calculation>
  <scstep>
   <time name="total">   11.50   11.67</time>
   <energy>
    <i name="alphaZ">     34.30176334 </i>
    <i name="ewald">  -1366.58178547 </i>
    <i name="hartreedc">   -513.40574798 </i>
    <i name="XCdc">      9.71753223 </i>
    <i name="pawpsdc">   1878.37875726 </i>
    <i name="pawaedc">  -1823.09045373 </i>
    <i name="eentropy">     -0.00005425 </i>
    <i name="bandstr">    116.46564096 </i>
    <i name="atom">   1884.88874340 </i>
    <i name="e_fr_energy">    220.67439575 </i>
    <i name="e_wo_entrp">    220.67445000 </i>
    <i name="e_0_energy">    220.67442287 </i>
   </energy>
  </scstep>
  <scstep>
   <time name="total">   10.59   10.67</time>
   <energy>
    <i name="e_fr_energy">     26.02408295 </i>
    <i name="e_wo_entrp">     26.02417527 </i>
    <i name="e_0_energy">     26.02412911 </i>
   </energy>
  </scstep>
  <scstep>
   <time name="total">   10.69   10.76</time>
   <energy>
    <i name="e_fr_energy">     -1.96913409 </i>
    <i name="e_wo_entrp">     -1.96913409 </i>
    <i name="e_0_energy">     -1.96913409 </i>
   </energy>
  </scstep>
  <scstep>
   <time name="total">   12.26   12.34</time>
   <energy>
    <i name="e_fr_energy">     -3.39316826 </i>
    <i name="e_wo_entrp">     -3.39316826 </i>
    <i name="e_0_energy">     -3.39316826 </i>
   </energy>
  </scstep>
  <scstep>
   <time name="total">   14.06   14.14</time>
   <energy>
    <i name="e_fr_energy">     -3.45134310 </i>
    <i name="e_wo_entrp">     -3.45134310 </i>
    <i name="e_0_energy">     -3.45134310 </i>
   </energy>
  </scstep>
  <scstep>
   <time name="total">    8.84    8.90</time>
   <energy>
    <i name="e_fr_energy">     -3.45134310 </i>
    <i name="e_wo_entrp">     -3.45134310 </i>
    <i name="e_0_energy">     -3.45134310 </i>
   </energy>
  </scstep>
  <scstep>
   <time name="total">    8.09    8.14</time>
   <energy>
    <i name="e_fr_energy">     -3.45201082 </i>
    <i name="e_wo_entrp">     -3.45201082 </i>
    <i name="e_0_energy">     -3.45201082 </i>
   </energy>
  </scstep>
  <scstep>
   <time name="total">    8.41    8.46</time>
   <energy>
    <i name="e_fr_energy">     -3.45223084 </i>
    <i name="e_wo_entrp">     -3.45223084 </i>
    <i name="e_0_energy">     -3.45223084 </i>
   </energy>
  </scstep>
  <scstep>
   <time name="total">    8.84    8.90</time>
   <energy>
    <i name="e_fr_energy">     -3.45230501 </i>
    <i name="e_wo_entrp">     -3.45230501 </i>
    <i name="e_0_energy">     -3.45230501 </i>
   </energy>
  </scstep>
  <scstep>
   <time name="total">    8.80    8.86</time>
   <energy>
    <i name="e_fr_energy">     -3.45232110 </i>
    <i name="e_wo_entrp">     -3.45232110 </i>
    <i name="e_0_energy">     -3.45232110 </i>
   </energy>
  </scstep>
  <scstep>
   <time name="total">    8.84    8.90</time>
   <energy>
    <i name="e_fr_energy">     -3.45232508 </i>
    <i name="e_wo_entrp">     -3.45232508 </i>
    <i name="e_0_energy">     -3.45232508 </i>
   </energy>
  </scstep>
  <scstep>
   <time name="total">    8.01    8.04</time>
   <energy>
    <i name="e_fr_energy">     -3.45232585 </i>
    <i name="e_wo_entrp">     -3.45232585 </i>
    <i name="e_0_energy">     -3.45232585 </i>
   </energy>
  </scstep>
  <scstep>
   <time name="total">    8.62    8.67</time>
   <energy>
    <i name="e_fr_energy">     -3.45232611 </i>
    <i name="e_wo_entrp">     -3.45232611 </i>
    <i name="e_0_energy">     -3.45232611 </i>
   </energy>
  </scstep>
  <scstep>
   <time name="total">   11.34   11.41</time>
   <energy>
    <i name="alphaZ">     34.30176334 </i>
    <i name="ewald">  -1366.58178547 </i>
    <i name="hartreedc">   -513.40574798 </i>
    <i name="XCdc">      9.71753223 </i>
    <i name="pawpsdc">   1878.37875726 </i>
    <i name="pawaedc">  -1823.09045373 </i>
    <i name="eentropy">     -0.00000000 </i>
    <i name="bandstr">   -107.66113519 </i>
    <i name="atom">   1884.88874340 </i>
    <i name="e_fr_energy">     -3.45232615 </i>
    <i name="e_wo_entrp">     -3.45232615 </i>
    <i name="e_0_energy">     -3.45232615 </i>
   </energy>
  </scstep>
  <structure>
   <crystal>
    <varray name="basis" >
     <v>       0.00000000       3.28431199       3.28431199 </v>
     <v>       3.28431199       0.00000000       3.28431199 </v>
     <v>       3.28431199       3.28431199       0.00000000 </v>
    </varray>
    <i name="volume">     70.85381075 </i>
    <varray name="rec_basis" >
     <v>      -0.15223889       0.15223889       0.15223889 </v>
     <v>       0.15223889      -0.15223889       0.15223889 </v>
     <v>       0.15223889       0.15223889      -0.15223889 </v>
    </varray>
   </crystal>
   <varray name="positions" >
    <v>       0.00000000       0.00000000       0.00000000 </v>
    <v>       0.50000000       0.50000000       0.50000000 </v>
   </varray>
  </structure>
  <varray name="forces" >
   <v>       0.00000160       0.00000281       0.00000385 </v>
   <v>      -0.00000160      -0.00000281      -0.00000385 </v>
  </varray>
  <varray name="stress" >
   <v>     296.78098468     -91.67718814      -0.00044801 </v>
   <v>     -91.67718811     296.78104660      -0.00038318 </v>
   <v>      -0.00044592      -0.00038426     -88.69049836 </v>
  </varray>
  <energy>
   <i name="e_fr_energy">     -3.45232615 </i>
   <i name="e_wo_entrp">     -3.45232615 </i>
   <i name="e_0_energy">     -0.00000000 </i>
  </energy>
  <time name="totalsc">  153.72  154.78</time>
  <eigenvalues>
   <array>
    <dimension dim="1">band</dimension>
    <dimension dim="2">kpoint</dimension>
    <dimension dim="3">spin</dimension>
    <field>eigene</field>
    <field>occ</field>
    <set>
     <set comment="spin 1">
      <set comment="kpoint 1">
       <r>  -13.0676    1.0000 </r>
       <r>  -13.0676    1.0000 </r>
       <r>  -13.0647    1.0000 </r>
       <r>  -13.0647    1.0000 </r>
       <r>  -10.5182    1.0000 </r>
       <r>  -10.5182    1.0000 </r>
       <r>  -10.5102    1.0000 </r>
       <r>  -10.5102    1.0000 </r>
       <r>  -10.4976    1.0000 </r>
       <r>  -10.4976    1.0000 </r>
       <r>   -5.9774    1.0000 </r>
       <r>   -5.9774    1.0000 </r>
       <r>   -2.1116    1.0000 </r>
       <r>   -2.1116    1.0000 </r>
       <r>    2.7112    1.0000 </r>
       <r>    2.7112    1.0000 </r>
       <r>    4.2932    1.0000 </r>
       <r>    4.2932    1.0000 </r>
       <r>    4.9631    1.0000 </r>
       <r>    4.9631    1.0000 </r>
       <r>    5.9513    0.0000 </r>
       <r>    5.9513    0.0000 </r>
       <r>    7.0698    0.0000 </r>
       <r>    7.0698    0.0000 </r>
       <r>    9.2399    0.0000 </r>
       <r>    9.2399    0.0000 </r>
       <r>   11.1131    0.0000 </r>
       <r>   11.1131    0.0000 </r>
       <r>   11.6581    0.0000 </r>
       <r>   11.6581    0.0000 </r>
       <r>   13.4278    0.0000 </r>
       <r>   13.4278    0.0000 </r>
       <r>   13.6818    0.0000 </r>
       <r>   13.6818    0.0000 </r>
       <r>   15.9102    0.0000 </r>
       <r>   15.9102    0.0000 </r>
       <r>   16.4620    0.0000 </r>
       <r>   16.4620    0.0000 </r>
       <r>   17.1005    0.0000 </r>
       <r>   17.1005    0.0000 </r>
       <r>   18.1520    0.0000 </r>
       <r>   18.1520    0.0000 </r>
       <r>   20.5721    0.0000 </r>
       <r>   20.5721    0.0000 </r>
       <r>   20.8338    0.0000 </r>
       <r>   20.8338    0.0000 </r>
       <r>   21.2466    0.0000 </r>
       <r>   21.2466    0.0000 </r>
       <r>   21.8381    0.0000 </r>
       <r>   21.8381    0.0000 </r>
       <r>   23.9147    0.0000 </r>
       <r>   23.9148    0.0000 </r>
       <r>   24.8705    0.0000 </r>
       <r>   24.8825    0.0000 </r>
       <r>   25.5702    0.0000 </r>
       <r>   25.6113    0.0000 </r>
       <r>   25.8881    0.0000 </r>
       <r>   25.9488    0.0000 </r>
       <r>   26.1184    0.0000 </r>
       <r>   26.3592    0.0000 </r>
      </set>
      <set comment="kpoint 2">
       <r>  -13.0676    1.0000 </r>
       <r>  -13.0676    1.0000 </r>
       <r>  -13.0648    1.0000 </r>
       <r>  -13.0648    1.0000 </r>
       <r>  -10.5178    1.0000 </r>
       <r>  -10.5178    1.0000 </r>
       <r>  -10.5101    1.0000 </r>
       <r>  -10.5101    1.0000 </r>
       <r>  -10.4981    1.0000 </r>
       <r>  -10.4981    1.0000 </r>
       <r>   -6.0397    1.0000 </r>
       <r>   -6.0397    1.0000 </r>
       <r>   -2.0094    1.0000 </r>
       <r>   -2.0094    1.0000 </r>
       <r>    2.7868    1.0000 </r>
       <r>    2.7868    1.0000 </r>
       <r>    4.2684    1.0000 </r>
       <r>    4.2684    1.0000 </r>
       <r>    4.9118    1.0000 </r>
       <r>    4.9118    1.0000 </r>
       <r>    6.0490    0.0000 </r>
       <r>    6.0490    0.0000 </r>
       <r>    7.1777    0.0000 </r>
       <r>    7.1777    0.0000 </r>
       <r>    9.2131    0.0000 </r>
       <r>    9.2131    0.0000 </r>
       <r>   10.9713    0.0000 </r>
       <r>   10.9713    0.0000 </r>
       <r>   11.6475    0.0000 </r>
       <r>   11.6475    0.0000 </r>
       <r>   13.2861    0.0000 </r>
       <r>   13.2861    0.0000 </r>
       <r>   13.5034    0.0000 </r>
       <r>   13.5034    0.0000 </r>
       <r>   15.9300    0.0000 </r>
       <r>   15.9300    0.0000 </r>
       <r>   16.1757    0.0000 </r>
       <r>   16.1757    0.0000 </r>
       <r>   16.8508    0.0000 </r>
       <r>   16.8508    0.0000 </r>
       <r>   18.0907    0.0000 </r>
       <r>   18.0907    0.0000 </r>
       <r>   20.6974    0.0000 </r>
       <r>   20.6974    0.0000 </r>
       <r>   20.9234    0.0000 </r>
       <r>   20.9234    0.0000 </r>
       <r>   21.4545    0.0000 </r>
       <r>   21.4545    0.0000 </r>
       <r>   21.9911    0.0000 </r>
       <r>   21.9911    0.0000 </r>
       <r>   24.1487    0.0000 </r>
       <r>   24.1497    0.0000 </r>
       <r>   24.6812    0.0000 </r>
       <r>   24.7002    0.0000 </r>
       <r>   25.7565    0.0000 </r>
       <r>   25.8173    0.0000 </r>
       <r>   26.1310    0.0000 </r>
       <r>   26.1907    0.0000 </r>
       <r>   26.4055    0.0000 </r>
       <r>   26.5659    0.0000 </r>
      </set>
      <set comment="kpoint 3">
       <r>  -13.0676    1.0000 </r>
       <r>  -13.0676    1.0000 </r>
       <r>  -13.0648    1.0000 </r>
       <r>  -13.0648    1.0000 </r>
       <r>  -10.5180    1.0000 </r>
       <r>  -10.5180    1.0000 </r>
       <r>  -10.5101    1.0000 </r>
       <r>  -10.5101    1.0000 </r>
       <r>  -10.4978    1.0000 </r>
       <r>  -10.4978    1.0000 </r>
       <r>   -6.0093    1.0000 </r>
       <r>   -6.0093    1.0000 </r>
       <r>   -2.0609    1.0000 </r>
       <r>   -2.0609    1.0000 </r>
       <r>    2.7498    1.0000 </r>
       <r>    2.7499    1.0000 </r>
       <r>    4.2874    1.0000 </r>
       <r>    4.2874    1.0000 </r>
       <r>    4.9458    1.0000 </r>
       <r>    4.9458    1.0000 </r>
       <r>    5.9912    0.0000 </r>
       <r>    5.9912    0.0000 </r>
       <r>    7.1139    0.0000 </r>
       <r>    7.1139    0.0000 </r>
       <r>    9.2250    0.0000 </r>
       <r>    9.2250    0.0000 </r>
       <r>   11.0552    0.0000 </r>
       <r>   11.0552    0.0000 </r>
       <r>   11.6367    0.0000 </r>
       <r>   11.6368    0.0000 </r>
       <r>   13.3643    0.0000 </r>
       <r>   13.3643    0.0000 </r>
       <r>   13.5821    0.0000 </r>
       <r>   13.5822    0.0000 </r>
       <r>   15.9522    0.0000 </r>
       <r>   15.9523    0.0000 </r>
       <r>   16.3153    0.0000 </r>
       <r>   16.3153    0.0000 </r>
       <r>   16.9614    0.0000 </r>
       <r>   16.9615    0.0000 </r>
       <r>   18.1017    0.0000 </r>
       <r>   18.1017    0.0000 </r>
       <r>   20.6451    0.0000 </r>
       <r>   20.6452    0.0000 </r>
       <r>   20.8964    0.0000 </r>
       <r>   20.8964    0.0000 </r>
       <r>   21.3302    0.0000 </r>
       <r>   21.3302    0.0000 </r>
       <r>   21.9035    0.0000 </r>
       <r>   21.9035    0.0000 </r>
       <r>   24.0485    0.0000 </r>
       <r>   24.0490    0.0000 </r>
       <r>   24.7958    0.0000 </r>
       <r>   24.8015    0.0000 </r>
       <r>   25.6544    0.0000 </r>
       <r>   25.6717    0.0000 </r>
       <r>   25.9984    0.0000 </r>
       <r>   26.0556    0.0000 </r>
       <r>   26.1067    0.0000 </r>
       <r>   26.3554    0.0000 </r>
      </set>
      <set comment="kpoint 4">
       <r>  -13.0677    1.0000 </r>
       <r>  -13.0677    1.0000 </r>
       <r>  -13.0646    1.0000 </r>
       <r>  -13.0646    1.0000 </r>
       <r>  -10.5185    1.0000 </r>
       <r>  -10.5185    1.0000 </r>
       <r>  -10.5102    1.0000 </r>
       <r>  -10.5102    1.0000 </r>
       <r>  -10.4973    1.0000 </r>
       <r>  -10.4973    1.0000 </r>
       <r>   -5.9442    1.0000 </r>
       <r>   -5.9442    1.0000 </r>
       <r>   -2.1615    1.0000 </r>
       <r>   -2.1615    1.0000 </r>
       <r>    2.6711    1.0000 </r>
       <r>    2.6712    1.0000 </r>
       <r>    4.2855    1.0000 </r>
       <r>    4.2856    1.0000 </r>
       <r>    4.9543    1.0000 </r>
       <r>    4.9544    1.0000 </r>
       <r>    5.9396    0.0000 </r>
       <r>    5.9396    0.0000 </r>
       <r>    7.0448    0.0000 </r>
       <r>    7.0448    0.0000 </r>
       <r>    9.2573    0.0000 </r>
       <r>    9.2574    0.0000 </r>
       <r>   11.1386    0.0000 </r>
       <r>   11.1386    0.0000 </r>
       <r>   11.7183    0.0000 </r>
       <r>   11.7184    0.0000 </r>
       <r>   13.4813    0.0000 </r>
       <r>   13.4814    0.0000 </r>
       <r>   13.7970    0.0000 </r>
       <r>   13.7970    0.0000 </r>
       <r>   15.8266    0.0000 </r>
       <r>   15.8266    0.0000 </r>
       <r>   16.6152    0.0000 </r>
       <r>   16.6152    0.0000 </r>
       <r>   17.2417    0.0000 </r>
       <r>   17.2417    0.0000 </r>
       <r>   18.2454    0.0000 </r>
       <r>   18.2454    0.0000 </r>
       <r>   20.4794    0.0000 </r>
       <r>   20.4794    0.0000 </r>
       <r>   20.7294    0.0000 </r>
       <r>   20.7294    0.0000 </r>
       <r>   21.2100    0.0000 </r>
       <r>   21.2100    0.0000 </r>
       <r>   21.7948    0.0000 </r>
       <r>   21.7948    0.0000 </r>
       <r>   23.7601    0.0000 </r>
       <r>   23.7602    0.0000 </r>
       <r>   24.8682    0.0000 </r>
       <r>   24.8980    0.0000 </r>
       <r>   25.4376    0.0000 </r>
       <r>   25.4801    0.0000 </r>
       <r>   25.8671    0.0000 </r>
       <r>   25.8998    0.0000 </r>
       <r>   25.9461    0.0000 </r>
       <r>   26.2304    0.0000 </r>
      </set>
      <set comment="kpoint 5">
       <r>  -13.0677    1.0000 </r>
       <r>  -13.0677    1.0000 </r>
       <r>  -13.0646    1.0000 </r>
       <r>  -13.0646    1.0000 </r>
       <r>  -10.5188    1.0000 </r>
       <r>  -10.5188    1.0000 </r>
       <r>  -10.5102    1.0000 </r>
       <r>  -10.5102    1.0000 </r>
       <r>  -10.4970    1.0000 </r>
       <r>  -10.4970    1.0000 </r>
       <r>   -5.9098    1.0000 </r>
       <r>   -5.9098    1.0000 </r>
       <r>   -2.2101    1.0000 </r>
       <r>   -2.2101    1.0000 </r>
       <r>    2.6301    1.0000 </r>
       <r>    2.6301    1.0000 </r>
       <r>    4.2635    1.0000 </r>
       <r>    4.2635    1.0000 </r>
       <r>    4.9169    1.0000 </r>
       <r>    4.9169    1.0000 </r>
       <r>    5.9604    0.0000 </r>
       <r>    5.9604    0.0000 </r>
       <r>    7.0387    0.0000 </r>
       <r>    7.0387    0.0000 </r>
       <r>    9.2769    0.0000 </r>
       <r>    9.2769    0.0000 </r>
       <r>   11.1362    0.0000 </r>
       <r>   11.1362    0.0000 </r>
       <r>   11.8128    0.0000 </r>
       <r>   11.8128    0.0000 </r>
       <r>   13.5298    0.0000 </r>
       <r>   13.5298    0.0000 </r>
       <r>   13.9222    0.0000 </r>
       <r>   13.9222    0.0000 </r>
       <r>   15.7189    0.0000 </r>
       <r>   15.7189    0.0000 </r>
       <r>   16.7728    0.0000 </r>
       <r>   16.7728    0.0000 </r>
       <r>   17.3682    0.0000 </r>
       <r>   17.3682    0.0000 </r>
       <r>   18.3821    0.0000 </r>
       <r>   18.3821    0.0000 </r>
       <r>   20.3704    0.0000 </r>
       <r>   20.3704    0.0000 </r>
       <r>   20.5967    0.0000 </r>
       <r>   20.5967    0.0000 </r>
       <r>   21.2063    0.0000 </r>
       <r>   21.2063    0.0000 </r>
       <r>   21.7715    0.0000 </r>
       <r>   21.7715    0.0000 </r>
       <r>   23.5889    0.0000 </r>
       <r>   23.5889    0.0000 </r>
       <r>   24.8002    0.0000 </r>
       <r>   24.8072    0.0000 </r>
       <r>   25.2874    0.0000 </r>
       <r>   25.3068    0.0000 </r>
       <r>   25.7053    0.0000 </r>
       <r>   25.8723    0.0000 </r>
       <r>   25.9913    0.0000 </r>
       <r>   26.1307    0.0000 </r>
      </set>
      <set comment="kpoint 6">
       <r>  -13.0676    1.0000 </r>
       <r>  -13.0676    1.0000 </r>
       <r>  -13.0648    1.0000 </r>
       <r>  -13.0648    1.0000 </r>
       <r>  -10.5178    1.0000 </r>
       <r>  -10.5178    1.0000 </r>
       <r>  -10.5101    1.0000 </r>
       <r>  -10.5101    1.0000 </r>
       <r>  -10.4981    1.0000 </r>
       <r>  -10.4981    1.0000 </r>
       <r>   -6.0397    1.0000 </r>
       <r>   -6.0397    1.0000 </r>
       <r>   -2.0094    1.0000 </r>
       <r>   -2.0094    1.0000 </r>
       <r>    2.7868    1.0000 </r>
       <r>    2.7868    1.0000 </r>
       <r>    4.2684    1.0000 </r>
       <r>    4.2684    1.0000 </r>
       <r>    4.9118    1.0000 </r>
       <r>    4.9118    1.0000 </r>
       <r>    6.0490    0.0000 </r>
       <r>    6.0490    0.0000 </r>
       <r>    7.1777    0.0000 </r>
       <r>    7.1777    0.0000 </r>
       <r>    9.2131    0.0000 </r>
       <r>    9.2131    0.0000 </r>
       <r>   10.9713    0.0000 </r>
       <r>   10.9713    0.0000 </r>
       <r>   11.6475    0.0000 </r>
       <r>   11.6475    0.0000 </r>
       <r>   13.2862    0.0000 </r>
       <r>   13.2862    0.0000 </r>
       <r>   13.5034    0.0000 </r>
       <r>   13.5034    0.0000 </r>
       <r>   15.9300    0.0000 </r>
       <r>   15.9300    0.0000 </r>
       <r>   16.1757    0.0000 </r>
       <r>   16.1757    0.0000 </r>
       <r>   16.8508    0.0000 </r>
       <r>   16.8508    0.0000 </r>
       <r>   18.0907    0.0000 </r>
       <r>   18.0907    0.0000 </r>
       <r>   20.6974    0.0000 </r>
       <r>   20.6974    0.0000 </r>
       <r>   20.9234    0.0000 </r>
       <r>   20.9234    0.0000 </r>
       <r>   21.4545    0.0000 </r>
       <r>   21.4545    0.0000 </r>
       <r>   21.9911    0.0000 </r>
       <r>   21.9911    0.0000 </r>
       <r>   24.1486    0.0000 </r>
       <r>   24.1487    0.0000 </r>
       <r>   24.6813    0.0000 </r>
       <r>   24.6821    0.0000 </r>
       <r>   25.7734    0.0000 </r>
       <r>   25.8089    0.0000 </r>
       <r>   26.1332    0.0000 </r>
       <r>   26.1865    0.0000 </r>
       <r>   26.2136    0.0000 </r>
       <r>   26.5817    0.0000 </r>
      </set>
      <set comment="kpoint 7">
       <r>  -13.0676    1.0000 </r>
       <r>  -13.0676    1.0000 </r>
       <r>  -13.0648    1.0000 </r>
       <r>  -13.0648    1.0000 </r>
       <r>  -10.5180    1.0000 </r>
       <r>  -10.5180    1.0000 </r>
       <r>  -10.5101    1.0000 </r>
       <r>  -10.5101    1.0000 </r>
       <r>  -10.4978    1.0000 </r>
       <r>  -10.4978    1.0000 </r>
       <r>   -6.0093    1.0000 </r>
       <r>   -6.0093    1.0000 </r>
       <r>   -2.0609    1.0000 </r>
       <r>   -2.0609    1.0000 </r>
       <r>    2.7498    1.0000 </r>
       <r>    2.7499    1.0000 </r>
       <r>    4.2874    1.0000 </r>
       <r>    4.2874    1.0000 </r>
       <r>    4.9458    1.0000 </r>
       <r>    4.9458    1.0000 </r>
       <r>    5.9912    0.0000 </r>
       <r>    5.9912    0.0000 </r>
       <r>    7.1139    0.0000 </r>
       <r>    7.1139    0.0000 </r>
       <r>    9.2250    0.0000 </r>
       <r>    9.2250    0.0000 </r>
       <r>   11.0552    0.0000 </r>
       <r>   11.0552    0.0000 </r>
       <r>   11.6367    0.0000 </r>
       <r>   11.6368    0.0000 </r>
       <r>   13.3644    0.0000 </r>
       <r>   13.3644    0.0000 </r>
       <r>   13.5821    0.0000 </r>
       <r>   13.5821    0.0000 </r>
       <r>   15.9521    0.0000 </r>
       <r>   15.9521    0.0000 </r>
       <r>   16.3153    0.0000 </r>
       <r>   16.3153    0.0000 </r>
       <r>   16.9614    0.0000 </r>
       <r>   16.9615    0.0000 </r>
       <r>   18.1017    0.0000 </r>
       <r>   18.1017    0.0000 </r>
       <r>   20.6451    0.0000 </r>
       <r>   20.6452    0.0000 </r>
       <r>   20.8964    0.0000 </r>
       <r>   20.8964    0.0000 </r>
       <r>   21.3302    0.0000 </r>
       <r>   21.3302    0.0000 </r>
       <r>   21.9035    0.0000 </r>
       <r>   21.9035    0.0000 </r>
       <r>   24.0484    0.0000 </r>
       <r>   24.0486    0.0000 </r>
       <r>   24.7954    0.0000 </r>
       <r>   24.7966    0.0000 </r>
       <r>   25.6522    0.0000 </r>
       <r>   25.6686    0.0000 </r>
       <r>   25.9873    0.0000 </r>
       <r>   26.0190    0.0000 </r>
       <r>   26.1209    0.0000 </r>
       <r>   26.3938    0.0000 </r>
      </set>
      <set comment="kpoint 8">
       <r>  -13.0677    1.0000 </r>
       <r>  -13.0677    1.0000 </r>
       <r>  -13.0646    1.0000 </r>
       <r>  -13.0646    1.0000 </r>
       <r>  -10.5185    1.0000 </r>
       <r>  -10.5185    1.0000 </r>
       <r>  -10.5102    1.0000 </r>
       <r>  -10.5102    1.0000 </r>
       <r>  -10.4973    1.0000 </r>
       <r>  -10.4973    1.0000 </r>
       <r>   -5.9442    1.0000 </r>
       <r>   -5.9442    1.0000 </r>
       <r>   -2.1615    1.0000 </r>
       <r>   -2.1615    1.0000 </r>
       <r>    2.6711    1.0000 </r>
       <r>    2.6712    1.0000 </r>
       <r>    4.2855    1.0000 </r>
       <r>    4.2856    1.0000 </r>
       <r>    4.9543    1.0000 </r>
       <r>    4.9544    1.0000 </r>
       <r>    5.9396    0.0000 </r>
       <r>    5.9396    0.0000 </r>
       <r>    7.0448    0.0000 </r>
       <r>    7.0448    0.0000 </r>
       <r>    9.2573    0.0000 </r>
       <r>    9.2574    0.0000 </r>
       <r>   11.1386    0.0000 </r>
       <r>   11.1386    0.0000 </r>
       <r>   11.7183    0.0000 </r>
       <r>   11.7184    0.0000 </r>
       <r>   13.4813    0.0000 </r>
       <r>   13.4813    0.0000 </r>
       <r>   13.7970    0.0000 </r>
       <r>   13.7970    0.0000 </r>
       <r>   15.8266    0.0000 </r>
       <r>   15.8266    0.0000 </r>
       <r>   16.6152    0.0000 </r>
       <r>   16.6152    0.0000 </r>
       <r>   17.2417    0.0000 </r>
       <r>   17.2417    0.0000 </r>
       <r>   18.2454    0.0000 </r>
       <r>   18.2454    0.0000 </r>
       <r>   20.4794    0.0000 </r>
       <r>   20.4794    0.0000 </r>
       <r>   20.7294    0.0000 </r>
       <r>   20.7294    0.0000 </r>
       <r>   21.2100    0.0000 </r>
       <r>   21.2100    0.0000 </r>
       <r>   21.7948    0.0000 </r>
       <r>   21.7948    0.0000 </r>
       <r>   23.7601    0.0000 </r>
       <r>   23.7603    0.0000 </r>
       <r>   24.8692    0.0000 </r>
       <r>   24.8780    0.0000 </r>
       <r>   25.4268    0.0000 </r>
       <r>   25.4412    0.0000 </r>
       <r>   25.8772    0.0000 </r>
       <r>   25.9026    0.0000 </r>
       <r>   25.9492    0.0000 </r>
       <r>   26.1461    0.0000 </r>
      </set>
      <set comment="kpoint 9">
       <r>  -13.0677    1.0000 </r>
       <r>  -13.0677    1.0000 </r>
       <r>  -13.0646    1.0000 </r>
       <r>  -13.0646    1.0000 </r>
       <r>  -10.5188    1.0000 </r>
       <r>  -10.5188    1.0000 </r>
       <r>  -10.5102    1.0000 </r>
       <r>  -10.5102    1.0000 </r>
       <r>  -10.4970    1.0000 </r>
       <r>  -10.4970    1.0000 </r>
       <r>   -5.9098    1.0000 </r>
       <r>   -5.9098    1.0000 </r>
       <r>   -2.2101    1.0000 </r>
       <r>   -2.2101    1.0000 </r>
       <r>    2.6301    1.0000 </r>
       <r>    2.6301    1.0000 </r>
       <r>    4.2635    1.0000 </r>
       <r>    4.2635    1.0000 </r>
       <r>    4.9169    1.0000 </r>
       <r>    4.9169    1.0000 </r>
       <r>    5.9604    0.0000 </r>
       <r>    5.9604    0.0000 </r>
       <r>    7.0387    0.0000 </r>
       <r>    7.0387    0.0000 </r>
       <r>    9.2769    0.0000 </r>
       <r>    9.2769    0.0000 </r>
       <r>   11.1362    0.0000 </r>
       <r>   11.1362    0.0000 </r>
       <r>   11.8128    0.0000 </r>
       <r>   11.8128    0.0000 </r>
       <r>   13.5298    0.0000 </r>
       <r>   13.5298    0.0000 </r>
       <r>   13.9223    0.0000 </r>
       <r>   13.9224    0.0000 </r>
       <r>   15.7189    0.0000 </r>
       <r>   15.7191    0.0000 </r>
       <r>   16.7728    0.0000 </r>
       <r>   16.7728    0.0000 </r>
       <r>   17.3682    0.0000 </r>
       <r>   17.3682    0.0000 </r>
       <r>   18.3821    0.0000 </r>
       <r>   18.3821    0.0000 </r>
       <r>   20.3704    0.0000 </r>
       <r>   20.3704    0.0000 </r>
       <r>   20.5967    0.0000 </r>
       <r>   20.5967    0.0000 </r>
       <r>   21.2063    0.0000 </r>
       <r>   21.2063    0.0000 </r>
       <r>   21.7715    0.0000 </r>
       <r>   21.7715    0.0000 </r>
       <r>   23.5889    0.0000 </r>
       <r>   23.5890    0.0000 </r>
       <r>   24.8004    0.0000 </r>
       <r>   24.8095    0.0000 </r>
       <r>   25.2878    0.0000 </r>
       <r>   25.3741    0.0000 </r>
       <r>   25.7295    0.0000 </r>
       <r>   25.8322    0.0000 </r>
       <r>   26.0280    0.0000 </r>
       <r>   26.1303    0.0000 </r>
      </set>
      <set comment="kpoint 10">
       <r>  -13.0677    1.0000 </r>
       <r>  -13.0677    1.0000 </r>
       <r>  -13.0647    1.0000 </r>
       <r>  -13.0647    1.0000 </r>
       <r>  -10.5183    1.0000 </r>
       <r>  -10.5183    1.0000 </r>
       <r>  -10.5100    1.0000 </r>
       <r>  -10.5100    1.0000 </r>
       <r>  -10.4976    1.0000 </r>
       <r>  -10.4976    1.0000 </r>
       <r>   -5.9740    1.0000 </r>
       <r>   -5.9740    1.0000 </r>
       <r>   -2.1228    1.0000 </r>
       <r>   -2.1228    1.0000 </r>
       <r>    2.7325    1.0000 </r>
       <r>    2.7325    1.0000 </r>
       <r>    4.2922    1.0000 </r>
       <r>    4.2922    1.0000 </r>
       <r>    4.9607    1.0000 </r>
       <r>    4.9607    1.0000 </r>
       <r>    5.9472    0.0000 </r>
       <r>    5.9472    0.0000 </r>
       <r>    7.0654    0.0000 </r>
       <r>    7.0654    0.0000 </r>
       <r>    9.1962    0.0000 </r>
       <r>    9.1962    0.0000 </r>
       <r>   11.1011    0.0000 </r>
       <r>   11.1011    0.0000 </r>
       <r>   11.6769    0.0000 </r>
       <r>   11.6769    0.0000 </r>
       <r>   13.4839    0.0000 </r>
       <r>   13.4839    0.0000 </r>
       <r>   13.6923    0.0000 </r>
       <r>   13.6923    0.0000 </r>
       <r>   15.9156    0.0000 </r>
       <r>   15.9156    0.0000 </r>
       <r>   16.4873    0.0000 </r>
       <r>   16.4873    0.0000 </r>
       <r>   17.1043    0.0000 </r>
       <r>   17.1043    0.0000 </r>
       <r>   18.1504    0.0000 </r>
       <r>   18.1504    0.0000 </r>
       <r>   20.3702    0.0000 </r>
       <r>   20.3702    0.0000 </r>
       <r>   20.6536    0.0000 </r>
       <r>   20.6536    0.0000 </r>
       <r>   21.4772    0.0000 </r>
       <r>   21.4772    0.0000 </r>
       <r>   22.0098    0.0000 </r>
       <r>   22.0098    0.0000 </r>
       <r>   23.9039    0.0000 </r>
       <r>   23.9041    0.0000 </r>
       <r>   24.8733    0.0000 </r>
       <r>   24.8937    0.0000 </r>
       <r>   25.4509    0.0000 </r>
       <r>   25.4563    0.0000 </r>
       <r>   25.8684    0.0000 </r>
       <r>   25.9561    0.0000 </r>
       <r>   26.1713    0.0000 </r>
       <r>   26.2955    0.0000 </r>
      </set>
      <set comment="kpoint 11">
       <r>  -13.0677    1.0000 </r>
       <r>  -13.0677    1.0000 </r>
       <r>  -13.0647    1.0000 </r>
       <r>  -13.0647    1.0000 </r>
       <r>  -10.5182    1.0000 </r>
       <r>  -10.5182    1.0000 </r>
       <r>  -10.5101    1.0000 </r>
       <r>  -10.5101    1.0000 </r>
       <r>  -10.4976    1.0000 </r>
       <r>  -10.4976    1.0000 </r>
       <r>   -5.9766    1.0000 </r>
       <r>   -5.9766    1.0000 </r>
       <r>   -2.1144    1.0000 </r>
       <r>   -2.1144    1.0000 </r>
       <r>    2.7165    1.0000 </r>
       <r>    2.7165    1.0000 </r>
       <r>    4.2930    1.0000 </r>
       <r>    4.2930    1.0000 </r>
       <r>    4.9625    1.0000 </r>
       <r>    4.9625    1.0000 </r>
       <r>    5.9503    0.0000 </r>
       <r>    5.9503    0.0000 </r>
       <r>    7.0687    0.0000 </r>
       <r>    7.0687    0.0000 </r>
       <r>    9.2290    0.0000 </r>
       <r>    9.2290    0.0000 </r>
       <r>   11.1098    0.0000 </r>
       <r>   11.1098    0.0000 </r>
       <r>   11.6628    0.0000 </r>
       <r>   11.6628    0.0000 </r>
       <r>   13.4436    0.0000 </r>
       <r>   13.4438    0.0000 </r>
       <r>   13.6830    0.0000 </r>
       <r>   13.6830    0.0000 </r>
       <r>   15.9116    0.0000 </r>
       <r>   15.9118    0.0000 </r>
       <r>   16.4684    0.0000 </r>
       <r>   16.4684    0.0000 </r>
       <r>   17.1014    0.0000 </r>
       <r>   17.1015    0.0000 </r>
       <r>   18.1516    0.0000 </r>
       <r>   18.1516    0.0000 </r>
       <r>   20.5126    0.0000 </r>
       <r>   20.5126    0.0000 </r>
       <r>   20.7792    0.0000 </r>
       <r>   20.7792    0.0000 </r>
       <r>   21.3182    0.0000 </r>
       <r>   21.3182    0.0000 </r>
       <r>   21.8856    0.0000 </r>
       <r>   21.8856    0.0000 </r>
       <r>   23.9119    0.0000 </r>
       <r>   23.9127    0.0000 </r>
       <r>   24.8744    0.0000 </r>
       <r>   24.8753    0.0000 </r>
       <r>   25.5380    0.0000 </r>
       <r>   25.5713    0.0000 </r>
       <r>   25.9384    0.0000 </r>
       <r>   25.9768    0.0000 </r>
       <r>   26.1942    0.0000 </r>
       <r>   26.3874    0.0000 </r>
      </set>
      <set comment="kpoint 12">
       <r>  -13.0677    1.0000 </r>
       <r>  -13.0677    1.0000 </r>
       <r>  -13.0647    1.0000 </r>
       <r>  -13.0647    1.0000 </r>
       <r>  -10.5182    1.0000 </r>
       <r>  -10.5182    1.0000 </r>
       <r>  -10.5101    1.0000 </r>
       <r>  -10.5101    1.0000 </r>
       <r>  -10.4976    1.0000 </r>
       <r>  -10.4976    1.0000 </r>
       <r>   -5.9766    1.0000 </r>
       <r>   -5.9766    1.0000 </r>
       <r>   -2.1144    1.0000 </r>
       <r>   -2.1144    1.0000 </r>
       <r>    2.7165    1.0000 </r>
       <r>    2.7165    1.0000 </r>
       <r>    4.2930    1.0000 </r>
       <r>    4.2930    1.0000 </r>
       <r>    4.9625    1.0000 </r>
       <r>    4.9625    1.0000 </r>
       <r>    5.9503    0.0000 </r>
       <r>    5.9503    0.0000 </r>
       <r>    7.0687    0.0000 </r>
       <r>    7.0687    0.0000 </r>
       <r>    9.2290    0.0000 </r>
       <r>    9.2290    0.0000 </r>
       <r>   11.1098    0.0000 </r>
       <r>   11.1098    0.0000 </r>
       <r>   11.6628    0.0000 </r>
       <r>   11.6628    0.0000 </r>
       <r>   13.4436    0.0000 </r>
       <r>   13.4436    0.0000 </r>
       <r>   13.6829    0.0000 </r>
       <r>   13.6829    0.0000 </r>
       <r>   15.9116    0.0000 </r>
       <r>   15.9117    0.0000 </r>
       <r>   16.4684    0.0000 </r>
       <r>   16.4684    0.0000 </r>
       <r>   17.1014    0.0000 </r>
       <r>   17.1014    0.0000 </r>
       <r>   18.1516    0.0000 </r>
       <r>   18.1516    0.0000 </r>
       <r>   20.5126    0.0000 </r>
       <r>   20.5126    0.0000 </r>
       <r>   20.7792    0.0000 </r>
       <r>   20.7792    0.0000 </r>
       <r>   21.3182    0.0000 </r>
       <r>   21.3182    0.0000 </r>
       <r>   21.8856    0.0000 </r>
       <r>   21.8856    0.0000 </r>
       <r>   23.9120    0.0000 </r>
       <r>   23.9124    0.0000 </r>
       <r>   24.8752    0.0000 </r>
       <r>   24.8819    0.0000 </r>
       <r>   25.5188    0.0000 </r>
       <r>   25.5605    0.0000 </r>
       <r>   25.8962    0.0000 </r>
       <r>   25.9694    0.0000 </r>
       <r>   26.0651    0.0000 </r>
       <r>   26.2849    0.0000 </r>
      </set>
      <set comment="kpoint 13">
       <r>  -13.0677    1.0000 </r>
       <r>  -13.0677    1.0000 </r>
       <r>  -13.0647    1.0000 </r>
       <r>  -13.0647    1.0000 </r>
       <r>  -10.5183    1.0000 </r>
       <r>  -10.5183    1.0000 </r>
       <r>  -10.5100    1.0000 </r>
       <r>  -10.5100    1.0000 </r>
       <r>  -10.4976    1.0000 </r>
       <r>  -10.4976    1.0000 </r>
       <r>   -5.9740    1.0000 </r>
       <r>   -5.9740    1.0000 </r>
       <r>   -2.1228    1.0000 </r>
       <r>   -2.1228    1.0000 </r>
       <r>    2.7325    1.0000 </r>
       <r>    2.7325    1.0000 </r>
       <r>    4.2922    1.0000 </r>
       <r>    4.2922    1.0000 </r>
       <r>    4.9607    1.0000 </r>
       <r>    4.9607    1.0000 </r>
       <r>    5.9472    0.0000 </r>
       <r>    5.9472    0.0000 </r>
       <r>    7.0654    0.0000 </r>
       <r>    7.0654    0.0000 </r>
       <r>    9.1962    0.0000 </r>
       <r>    9.1962    0.0000 </r>
       <r>   11.1011    0.0000 </r>
       <r>   11.1011    0.0000 </r>
       <r>   11.6769    0.0000 </r>
       <r>   11.6769    0.0000 </r>
       <r>   13.4838    0.0000 </r>
       <r>   13.4838    0.0000 </r>
       <r>   13.6923    0.0000 </r>
       <r>   13.6923    0.0000 </r>
       <r>   15.9156    0.0000 </r>
       <r>   15.9156    0.0000 </r>
       <r>   16.4873    0.0000 </r>
       <r>   16.4873    0.0000 </r>
       <r>   17.1043    0.0000 </r>
       <r>   17.1043    0.0000 </r>
       <r>   18.1504    0.0000 </r>
       <r>   18.1504    0.0000 </r>
       <r>   20.3701    0.0000 </r>
       <r>   20.3702    0.0000 </r>
       <r>   20.6536    0.0000 </r>
       <r>   20.6536    0.0000 </r>
       <r>   21.4772    0.0000 </r>
       <r>   21.4772    0.0000 </r>
       <r>   22.0098    0.0000 </r>
       <r>   22.0098    0.0000 </r>
       <r>   23.9038    0.0000 </r>
       <r>   23.9040    0.0000 </r>
       <r>   24.8747    0.0000 </r>
       <r>   24.8811    0.0000 </r>
       <r>   25.4465    0.0000 </r>
       <r>   25.4678    0.0000 </r>
       <r>   25.8689    0.0000 </r>
       <r>   26.0001    0.0000 </r>
       <r>   26.1291    0.0000 </r>
       <r>   26.2748    0.0000 </r>
      </set>
      <set comment="kpoint 14">
       <r>  -13.0676    1.0000 </r>
       <r>  -13.0676    1.0000 </r>
       <r>  -13.0650    1.0000 </r>
       <r>  -13.0650    1.0000 </r>
       <r>  -10.5172    1.0000 </r>
       <r>  -10.5172    1.0000 </r>
       <r>  -10.5100    1.0000 </r>
       <r>  -10.5100    1.0000 </r>
       <r>  -10.4987    1.0000 </r>
       <r>  -10.4987    1.0000 </r>
       <r>   -6.1032    1.0000 </r>
       <r>   -6.1032    1.0000 </r>
       <r>   -1.9056    1.0000 </r>
       <r>   -1.9056    1.0000 </r>
       <r>    2.8605    1.0000 </r>
       <r>    2.8605    1.0000 </r>
       <r>    4.2722    1.0000 </r>
       <r>    4.2722    1.0000 </r>
       <r>    4.9015    1.0000 </r>
       <r>    4.9015    1.0000 </r>
       <r>    6.1112    0.0000 </r>
       <r>    6.1112    0.0000 </r>
       <r>    7.2534    0.0000 </r>
       <r>    7.2534    0.0000 </r>
       <r>    9.1893    0.0000 </r>
       <r>    9.1894    0.0000 </r>
       <r>   10.9603    0.0000 </r>
       <r>   10.9603    0.0000 </r>
       <r>   11.5047    0.0000 </r>
       <r>   11.5047    0.0000 </r>
       <r>   13.0786    0.0000 </r>
       <r>   13.0786    0.0000 </r>
       <r>   13.3883    0.0000 </r>
       <r>   13.3884    0.0000 </r>
       <r>   15.7983    0.0000 </r>
       <r>   15.7983    0.0000 </r>
       <r>   15.9883    0.0000 </r>
       <r>   15.9883    0.0000 </r>
       <r>   16.5436    0.0000 </r>
       <r>   16.5436    0.0000 </r>
       <r>   18.1346    0.0000 </r>
       <r>   18.1346    0.0000 </r>
       <r>   20.9143    0.0000 </r>
       <r>   20.9144    0.0000 </r>
       <r>   21.1814    0.0000 </r>
       <r>   21.1814    0.0000 </r>
       <r>   21.4882    0.0000 </r>
       <r>   21.4882    0.0000 </r>
       <r>   22.0670    0.0000 </r>
       <r>   22.0671    0.0000 </r>
       <r>   24.3464    0.0000 </r>
       <r>   24.3475    0.0000 </r>
       <r>   24.8717    0.0000 </r>
       <r>   24.8742    0.0000 </r>
       <r>   25.7013    0.0000 </r>
       <r>   25.7380    0.0000 </r>
       <r>   26.3513    0.0000 </r>
       <r>   26.4017    0.0000 </r>
       <r>   26.5041    0.0000 </r>
       <r>   26.6627    0.0000 </r>
      </set>
      <set comment="kpoint 15">
       <r>  -13.0676    1.0000 </r>
       <r>  -13.0676    1.0000 </r>
       <r>  -13.0649    1.0000 </r>
       <r>  -13.0649    1.0000 </r>
       <r>  -10.5175    1.0000 </r>
       <r>  -10.5175    1.0000 </r>
       <r>  -10.5101    1.0000 </r>
       <r>  -10.5101    1.0000 </r>
       <r>  -10.4984    1.0000 </r>
       <r>  -10.4984    1.0000 </r>
       <r>   -6.0722    1.0000 </r>
       <r>   -6.0722    1.0000 </r>
       <r>   -1.9578    1.0000 </r>
       <r>   -1.9578    1.0000 </r>
       <r>    2.8245    1.0000 </r>
       <r>    2.8245    1.0000 </r>
       <r>    4.2763    1.0000 </r>
       <r>    4.2763    1.0000 </r>
       <r>    4.9174    1.0000 </r>
       <r>    4.9174    1.0000 </r>
       <r>    6.0685    0.0000 </r>
       <r>    6.0686    0.0000 </r>
       <r>    7.2064    0.0000 </r>
       <r>    7.2064    0.0000 </r>
       <r>    9.1998    0.0000 </r>
       <r>    9.1998    0.0000 </r>
       <r>   10.9790    0.0000 </r>
       <r>   10.9790    0.0000 </r>
       <r>   11.5596    0.0000 </r>
       <r>   11.5596    0.0000 </r>
       <r>   13.1862    0.0000 </r>
       <r>   13.1862    0.0000 </r>
       <r>   13.4387    0.0000 </r>
       <r>   13.4387    0.0000 </r>
       <r>   15.9042    0.0000 </r>
       <r>   15.9042    0.0000 </r>
       <r>   16.0634    0.0000 </r>
       <r>   16.0634    0.0000 </r>
       <r>   16.6945    0.0000 </r>
       <r>   16.6945    0.0000 </r>
       <r>   18.0885    0.0000 </r>
       <r>   18.0885    0.0000 </r>
       <r>   20.8155    0.0000 </r>
       <r>   20.8155    0.0000 </r>
       <r>   21.0678    0.0000 </r>
       <r>   21.0678    0.0000 </r>
       <r>   21.4537    0.0000 </r>
       <r>   21.4537    0.0000 </r>
       <r>   22.0186    0.0000 </r>
       <r>   22.0186    0.0000 </r>
       <r>   24.2726    0.0000 </r>
       <r>   24.2730    0.0000 </r>
       <r>   24.7900    0.0000 </r>
       <r>   24.7932    0.0000 </r>
       <r>   25.7254    0.0000 </r>
       <r>   25.7429    0.0000 </r>
       <r>   26.2325    0.0000 </r>
       <r>   26.2731    0.0000 </r>
       <r>   26.3539    0.0000 </r>
       <r>   26.5367    0.0000 </r>
      </set>
      <set comment="kpoint 16">
       <r>  -13.0676    1.0000 </r>
       <r>  -13.0676    1.0000 </r>
       <r>  -13.0648    1.0000 </r>
       <r>  -13.0648    1.0000 </r>
       <r>  -10.5181    1.0000 </r>
       <r>  -10.5181    1.0000 </r>
       <r>  -10.5101    1.0000 </r>
       <r>  -10.5101    1.0000 </r>
       <r>  -10.4978    1.0000 </r>
       <r>  -10.4978    1.0000 </r>
       <r>   -6.0057    1.0000 </r>
       <r>   -6.0057    1.0000 </r>
       <r>   -2.0601    1.0000 </r>
       <r>   -2.0601    1.0000 </r>
       <r>    2.7477    1.0000 </r>
       <r>    2.7477    1.0000 </r>
       <r>    4.2493    1.0000 </r>
       <r>    4.2493    1.0000 </r>
       <r>    4.8783    1.0000 </r>
       <r>    4.8783    1.0000 </r>
       <r>    6.0598    0.0000 </r>
       <r>    6.0598    0.0000 </r>
       <r>    7.1659    0.0000 </r>
       <r>    7.1659    0.0000 </r>
       <r>    9.2286    0.0000 </r>
       <r>    9.2286    0.0000 </r>
       <r>   10.9469    0.0000 </r>
       <r>   10.9469    0.0000 </r>
       <r>   11.7586    0.0000 </r>
       <r>   11.7586    0.0000 </r>
       <r>   13.3708    0.0000 </r>
       <r>   13.3708    0.0000 </r>
       <r>   13.5894    0.0000 </r>
       <r>   13.5894    0.0000 </r>
       <r>   15.8955    0.0000 </r>
       <r>   15.8955    0.0000 </r>
       <r>   16.3204    0.0000 </r>
       <r>   16.3204    0.0000 </r>
       <r>   16.9866    0.0000 </r>
       <r>   16.9866    0.0000 </r>
       <r>   18.1510    0.0000 </r>
       <r>   18.1510    0.0000 </r>
       <r>   20.5654    0.0000 </r>
       <r>   20.5654    0.0000 </r>
       <r>   20.7669    0.0000 </r>
       <r>   20.7669    0.0000 </r>
       <r>   21.4715    0.0000 </r>
       <r>   21.4715    0.0000 </r>
       <r>   21.9807    0.0000 </r>
       <r>   21.9807    0.0000 </r>
       <r>   23.9926    0.0000 </r>
       <r>   23.9928    0.0000 </r>
       <r>   24.5482    0.0000 </r>
       <r>   24.5506    0.0000 </r>
       <r>   25.7386    0.0000 </r>
       <r>   25.7608    0.0000 </r>
       <r>   25.9965    0.0000 </r>
       <r>   26.1705    0.0000 </r>
       <r>   26.2515    0.0000 </r>
       <r>   26.3393    0.0000 </r>
      </set>
      <set comment="kpoint 17">
       <r>  -13.0676    1.0000 </r>
       <r>  -13.0676    1.0000 </r>
       <r>  -13.0647    1.0000 </r>
       <r>  -13.0647    1.0000 </r>
       <r>  -10.5186    1.0000 </r>
       <r>  -10.5186    1.0000 </r>
       <r>  -10.5101    1.0000 </r>
       <r>  -10.5101    1.0000 </r>
       <r>  -10.4974    1.0000 </r>
       <r>  -10.4974    1.0000 </r>
       <r>   -5.9704    1.0000 </r>
       <r>   -5.9704    1.0000 </r>
       <r>   -2.1095    1.0000 </r>
       <r>   -2.1095    1.0000 </r>
       <r>    2.7076    1.0000 </r>
       <r>    2.7076    1.0000 </r>
       <r>    4.2183    1.0000 </r>
       <r>    4.2183    1.0000 </r>
       <r>    4.8177    1.0000 </r>
       <r>    4.8177    1.0000 </r>
       <r>    6.1015    0.0000 </r>
       <r>    6.1015    0.0000 </r>
       <r>    7.1702    0.0000 </r>
       <r>    7.1702    0.0000 </r>
       <r>    9.2461    0.0000 </r>
       <r>    9.2461    0.0000 </r>
       <r>   10.9139    0.0000 </r>
       <r>   10.9139    0.0000 </r>
       <r>   11.8849    0.0000 </r>
       <r>   11.8850    0.0000 </r>
       <r>   13.4390    0.0000 </r>
       <r>   13.4390    0.0000 </r>
       <r>   13.6977    0.0000 </r>
       <r>   13.6977    0.0000 </r>
       <r>   15.8304    0.0000 </r>
       <r>   15.8306    0.0000 </r>
       <r>   16.4762    0.0000 </r>
       <r>   16.4762    0.0000 </r>
       <r>   17.0912    0.0000 </r>
       <r>   17.0912    0.0000 </r>
       <r>   18.2709    0.0000 </r>
       <r>   18.2709    0.0000 </r>
       <r>   20.4244    0.0000 </r>
       <r>   20.4244    0.0000 </r>
       <r>   20.6057    0.0000 </r>
       <r>   20.6057    0.0000 </r>
       <r>   21.4967    0.0000 </r>
       <r>   21.4967    0.0000 </r>
       <r>   21.9833    0.0000 </r>
       <r>   21.9833    0.0000 </r>
       <r>   23.8141    0.0000 </r>
       <r>   23.8145    0.0000 </r>
       <r>   24.4015    0.0000 </r>
       <r>   24.4060    0.0000 </r>
       <r>   25.6387    0.0000 </r>
       <r>   25.6865    0.0000 </r>
       <r>   25.8335    0.0000 </r>
       <r>   25.9023    0.0000 </r>
       <r>   26.3143    0.0000 </r>
       <r>   26.5185    0.0000 </r>
      </set>
      <set comment="kpoint 18">
       <r>  -13.0676    1.0000 </r>
       <r>  -13.0676    1.0000 </r>
       <r>  -13.0649    1.0000 </r>
       <r>  -13.0649    1.0000 </r>
       <r>  -10.5175    1.0000 </r>
       <r>  -10.5175    1.0000 </r>
       <r>  -10.5101    1.0000 </r>
       <r>  -10.5101    1.0000 </r>
       <r>  -10.4984    1.0000 </r>
       <r>  -10.4984    1.0000 </r>
       <r>   -6.0722    1.0000 </r>
       <r>   -6.0722    1.0000 </r>
       <r>   -1.9578    1.0000 </r>
       <r>   -1.9578    1.0000 </r>
       <r>    2.8245    1.0000 </r>
       <r>    2.8245    1.0000 </r>
       <r>    4.2763    1.0000 </r>
       <r>    4.2763    1.0000 </r>
       <r>    4.9174    1.0000 </r>
       <r>    4.9174    1.0000 </r>
       <r>    6.0685    0.0000 </r>
       <r>    6.0686    0.0000 </r>
       <r>    7.2064    0.0000 </r>
       <r>    7.2064    0.0000 </r>
       <r>    9.1998    0.0000 </r>
       <r>    9.1998    0.0000 </r>
       <r>   10.9790    0.0000 </r>
       <r>   10.9790    0.0000 </r>
       <r>   11.5596    0.0000 </r>
       <r>   11.5596    0.0000 </r>
       <r>   13.1862    0.0000 </r>
       <r>   13.1864    0.0000 </r>
       <r>   13.4388    0.0000 </r>
       <r>   13.4388    0.0000 </r>
       <r>   15.9043    0.0000 </r>
       <r>   15.9043    0.0000 </r>
       <r>   16.0635    0.0000 </r>
       <r>   16.0636    0.0000 </r>
       <r>   16.6945    0.0000 </r>
       <r>   16.6945    0.0000 </r>
       <r>   18.0885    0.0000 </r>
       <r>   18.0885    0.0000 </r>
       <r>   20.8155    0.0000 </r>
       <r>   20.8155    0.0000 </r>
       <r>   21.0678    0.0000 </r>
       <r>   21.0678    0.0000 </r>
       <r>   21.4537    0.0000 </r>
       <r>   21.4537    0.0000 </r>
       <r>   22.0186    0.0000 </r>
       <r>   22.0186    0.0000 </r>
       <r>   24.2725    0.0000 </r>
       <r>   24.2728    0.0000 </r>
       <r>   24.7901    0.0000 </r>
       <r>   24.7930    0.0000 </r>
       <r>   25.7305    0.0000 </r>
       <r>   25.7344    0.0000 </r>
       <r>   26.2317    0.0000 </r>
       <r>   26.2743    0.0000 </r>
       <r>   26.3479    0.0000 </r>
       <r>   26.4231    0.0000 </r>
      </set>
      <set comment="kpoint 19">
       <r>  -13.0676    1.0000 </r>
       <r>  -13.0676    1.0000 </r>
       <r>  -13.0648    1.0000 </r>
       <r>  -13.0648    1.0000 </r>
       <r>  -10.5177    1.0000 </r>
       <r>  -10.5177    1.0000 </r>
       <r>  -10.5101    1.0000 </r>
       <r>  -10.5101    1.0000 </r>
       <r>  -10.4981    1.0000 </r>
       <r>  -10.4981    1.0000 </r>
       <r>   -6.0415    1.0000 </r>
       <r>   -6.0415    1.0000 </r>
       <r>   -2.0097    1.0000 </r>
       <r>   -2.0097    1.0000 </r>
       <r>    2.7881    1.0000 </r>
       <r>    2.7881    1.0000 </r>
       <r>    4.2883    1.0000 </r>
       <r>    4.2883    1.0000 </r>
       <r>    4.9413    1.0000 </r>
       <r>    4.9413    1.0000 </r>
       <r>    6.0194    0.0000 </r>
       <r>    6.0194    0.0000 </r>
       <r>    7.1506    0.0000 </r>
       <r>    7.1506    0.0000 </r>
       <r>    9.2110    0.0000 </r>
       <r>    9.2110    0.0000 </r>
       <r>   11.0329    0.0000 </r>
       <r>   11.0330    0.0000 </r>
       <r>   11.5792    0.0000 </r>
       <r>   11.5792    0.0000 </r>
       <r>   13.2822    0.0000 </r>
       <r>   13.2822    0.0000 </r>
       <r>   13.5002    0.0000 </r>
       <r>   13.5002    0.0000 </r>
       <r>   15.9663    0.0000 </r>
       <r>   15.9664    0.0000 </r>
       <r>   16.1788    0.0000 </r>
       <r>   16.1788    0.0000 </r>
       <r>   16.8182    0.0000 </r>
       <r>   16.8182    0.0000 </r>
       <r>   18.0720    0.0000 </r>
       <r>   18.0720    0.0000 </r>
       <r>   20.7410    0.0000 </r>
       <r>   20.7410    0.0000 </r>
       <r>   21.0053    0.0000 </r>
       <r>   21.0053    0.0000 </r>
       <r>   21.3660    0.0000 </r>
       <r>   21.3660    0.0000 </r>
       <r>   21.9497    0.0000 </r>
       <r>   21.9497    0.0000 </r>
       <r>   24.1824    0.0000 </r>
       <r>   24.1825    0.0000 </r>
       <r>   24.8159    0.0000 </r>
       <r>   24.8192    0.0000 </r>
       <r>   25.6809    0.0000 </r>
       <r>   25.7338    0.0000 </r>
       <r>   26.0825    0.0000 </r>
       <r>   26.1916    0.0000 </r>
       <r>   26.2860    0.0000 </r>
       <r>   26.4099    0.0000 </r>
      </set>
      <set comment="kpoint 20">
       <r>  -13.0677    1.0000 </r>
       <r>  -13.0676    1.0000 </r>
       <r>  -13.0647    1.0000 </r>
       <r>  -13.0647    1.0000 </r>
       <r>  -10.5183    1.0000 </r>
       <r>  -10.5183    1.0000 </r>
       <r>  -10.5101    1.0000 </r>
       <r>  -10.5101    1.0000 </r>
       <r>  -10.4975    1.0000 </r>
       <r>  -10.4975    1.0000 </r>
       <r>   -5.9757    1.0000 </r>
       <r>   -5.9757    1.0000 </r>
       <r>   -2.1111    1.0000 </r>
       <r>   -2.1111    1.0000 </r>
       <r>    2.7103    1.0000 </r>
       <r>    2.7103    1.0000 </r>
       <r>    4.2738    1.0000 </r>
       <r>    4.2738    1.0000 </r>
       <r>    4.9231    1.0000 </r>
       <r>    4.9231    1.0000 </r>
       <r>    5.9924    0.0000 </r>
       <r>    5.9924    0.0000 </r>
       <r>    7.0956    0.0000 </r>
       <r>    7.0956    0.0000 </r>
       <r>    9.2415    0.0000 </r>
       <r>    9.2415    0.0000 </r>
       <r>   11.0502    0.0000 </r>
       <r>   11.0503    0.0000 </r>
       <r>   11.7279    0.0000 </r>
       <r>   11.7279    0.0000 </r>
       <r>   13.4306    0.0000 </r>
       <r>   13.4306    0.0000 </r>
       <r>   13.6857    0.0000 </r>
       <r>   13.6858    0.0000 </r>
       <r>   15.8897    0.0000 </r>
       <r>   15.8897    0.0000 </r>
       <r>   16.4655    0.0000 </r>
       <r>   16.4655    0.0000 </r>
       <r>   17.0975    0.0000 </r>
       <r>   17.0975    0.0000 </r>
       <r>   18.1830    0.0000 </r>
       <r>   18.1831    0.0000 </r>
       <r>   20.5315    0.0000 </r>
       <r>   20.5315    0.0000 </r>
       <r>   20.7578    0.0000 </r>
       <r>   20.7578    0.0000 </r>
       <r>   21.3286    0.0000 </r>
       <r>   21.3286    0.0000 </r>
       <r>   21.8777    0.0000 </r>
       <r>   21.8777    0.0000 </r>
       <r>   23.8885    0.0000 </r>
       <r>   23.8887    0.0000 </r>
       <r>   24.7200    0.0000 </r>
       <r>   24.7214    0.0000 </r>
       <r>   25.5863    0.0000 </r>
       <r>   25.6622    0.0000 </r>
       <r>   25.9393    0.0000 </r>
       <r>   26.0141    0.0000 </r>
       <r>   26.1659    0.0000 </r>
       <r>   26.3654    0.0000 </r>
      </set>
      <set comment="kpoint 21">
       <r>  -13.0677    1.0000 </r>
       <r>  -13.0677    1.0000 </r>
       <r>  -13.0647    1.0000 </r>
       <r>  -13.0647    1.0000 </r>
       <r>  -10.5187    1.0000 </r>
       <r>  -10.5187    1.0000 </r>
       <r>  -10.5102    1.0000 </r>
       <r>  -10.5102    1.0000 </r>
       <r>  -10.4972    1.0000 </r>
       <r>  -10.4972    1.0000 </r>
       <r>   -5.9408    1.0000 </r>
       <r>   -5.9408    1.0000 </r>
       <r>   -2.1602    1.0000 </r>
       <r>   -2.1602    1.0000 </r>
       <r>    2.6697    1.0000 </r>
       <r>    2.6697    1.0000 </r>
       <r>    4.2468    1.0000 </r>
       <r>    4.2468    1.0000 </r>
       <r>    4.8726    1.0000 </r>
       <r>    4.8726    1.0000 </r>
       <r>    6.0253    0.0000 </r>
       <r>    6.0253    0.0000 </r>
       <r>    7.0950    0.0000 </r>
       <r>    7.0950    0.0000 </r>
       <r>    9.2600    0.0000 </r>
       <r>    9.2600    0.0000 </r>
       <r>   11.0284    0.0000 </r>
       <r>   11.0284    0.0000 </r>
       <r>   11.8425    0.0000 </r>
       <r>   11.8425    0.0000 </r>
       <r>   13.4864    0.0000 </r>
       <r>   13.4864    0.0000 </r>
       <r>   13.8052    0.0000 </r>
       <r>   13.8052    0.0000 </r>
       <r>   15.7992    0.0000 </r>
       <r>   15.7992    0.0000 </r>
       <r>   16.6225    0.0000 </r>
       <r>   16.6225    0.0000 </r>
       <r>   17.2123    0.0000 </r>
       <r>   17.2123    0.0000 </r>
       <r>   18.3158    0.0000 </r>
       <r>   18.3158    0.0000 </r>
       <r>   20.4048    0.0000 </r>
       <r>   20.4048    0.0000 </r>
       <r>   20.6061    0.0000 </r>
       <r>   20.6061    0.0000 </r>
       <r>   21.3442    0.0000 </r>
       <r>   21.3442    0.0000 </r>
       <r>   21.8689    0.0000 </r>
       <r>   21.8689    0.0000 </r>
       <r>   23.7100    0.0000 </r>
       <r>   23.7102    0.0000 </r>
       <r>   24.6061    0.0000 </r>
       <r>   24.6067    0.0000 </r>
       <r>   25.4622    0.0000 </r>
       <r>   25.4890    0.0000 </r>
       <r>   25.7848    0.0000 </r>
       <r>   25.8852    0.0000 </r>
       <r>   26.1641    0.0000 </r>
       <r>   26.3068    0.0000 </r>
      </set>
      <set comment="kpoint 22">
       <r>  -13.0676    1.0000 </r>
       <r>  -13.0676    1.0000 </r>
       <r>  -13.0648    1.0000 </r>
       <r>  -13.0648    1.0000 </r>
       <r>  -10.5181    1.0000 </r>
       <r>  -10.5181    1.0000 </r>
       <r>  -10.5101    1.0000 </r>
       <r>  -10.5101    1.0000 </r>
       <r>  -10.4978    1.0000 </r>
       <r>  -10.4978    1.0000 </r>
       <r>   -6.0057    1.0000 </r>
       <r>   -6.0057    1.0000 </r>
       <r>   -2.0601    1.0000 </r>
       <r>   -2.0601    1.0000 </r>
       <r>    2.7477    1.0000 </r>
       <r>    2.7477    1.0000 </r>
       <r>    4.2493    1.0000 </r>
       <r>    4.2493    1.0000 </r>
       <r>    4.8783    1.0000 </r>
       <r>    4.8783    1.0000 </r>
       <r>    6.0598    0.0000 </r>
       <r>    6.0598    0.0000 </r>
       <r>    7.1659    0.0000 </r>
       <r>    7.1659    0.0000 </r>
       <r>    9.2286    0.0000 </r>
       <r>    9.2286    0.0000 </r>
       <r>   10.9469    0.0000 </r>
       <r>   10.9469    0.0000 </r>
       <r>   11.7586    0.0000 </r>
       <r>   11.7586    0.0000 </r>
       <r>   13.3708    0.0000 </r>
       <r>   13.3708    0.0000 </r>
       <r>   13.5894    0.0000 </r>
       <r>   13.5894    0.0000 </r>
       <r>   15.8955    0.0000 </r>
       <r>   15.8955    0.0000 </r>
       <r>   16.3204    0.0000 </r>
       <r>   16.3204    0.0000 </r>
       <r>   16.9866    0.0000 </r>
       <r>   16.9866    0.0000 </r>
       <r>   18.1510    0.0000 </r>
       <r>   18.1510    0.0000 </r>
       <r>   20.5654    0.0000 </r>
       <r>   20.5654    0.0000 </r>
       <r>   20.7669    0.0000 </r>
       <r>   20.7669    0.0000 </r>
       <r>   21.4715    0.0000 </r>
       <r>   21.4715    0.0000 </r>
       <r>   21.9807    0.0000 </r>
       <r>   21.9807    0.0000 </r>
       <r>   23.9926    0.0000 </r>
       <r>   23.9926    0.0000 </r>
       <r>   24.5482    0.0000 </r>
       <r>   24.5485    0.0000 </r>
       <r>   25.7309    0.0000 </r>
       <r>   25.7348    0.0000 </r>
       <r>   25.9941    0.0000 </r>
       <r>   26.0253    0.0000 </r>
       <r>   26.2188    0.0000 </r>
       <r>   26.7335    0.0000 </r>
      </set>
      <set comment="kpoint 23">
       <r>  -13.0677    1.0000 </r>
       <r>  -13.0676    1.0000 </r>
       <r>  -13.0647    1.0000 </r>
       <r>  -13.0647    1.0000 </r>
       <r>  -10.5183    1.0000 </r>
       <r>  -10.5183    1.0000 </r>
       <r>  -10.5101    1.0000 </r>
       <r>  -10.5101    1.0000 </r>
       <r>  -10.4975    1.0000 </r>
       <r>  -10.4975    1.0000 </r>
       <r>   -5.9757    1.0000 </r>
       <r>   -5.9757    1.0000 </r>
       <r>   -2.1111    1.0000 </r>
       <r>   -2.1111    1.0000 </r>
       <r>    2.7103    1.0000 </r>
       <r>    2.7103    1.0000 </r>
       <r>    4.2738    1.0000 </r>
       <r>    4.2738    1.0000 </r>
       <r>    4.9231    1.0000 </r>
       <r>    4.9231    1.0000 </r>
       <r>    5.9924    0.0000 </r>
       <r>    5.9924    0.0000 </r>
       <r>    7.0956    0.0000 </r>
       <r>    7.0956    0.0000 </r>
       <r>    9.2415    0.0000 </r>
       <r>    9.2415    0.0000 </r>
       <r>   11.0502    0.0000 </r>
       <r>   11.0503    0.0000 </r>
       <r>   11.7279    0.0000 </r>
       <r>   11.7279    0.0000 </r>
       <r>   13.4306    0.0000 </r>
       <r>   13.4306    0.0000 </r>
       <r>   13.6857    0.0000 </r>
       <r>   13.6857    0.0000 </r>
       <r>   15.8896    0.0000 </r>
       <r>   15.8896    0.0000 </r>
       <r>   16.4655    0.0000 </r>
       <r>   16.4655    0.0000 </r>
       <r>   17.0975    0.0000 </r>
       <r>   17.0975    0.0000 </r>
       <r>   18.1830    0.0000 </r>
       <r>   18.1831    0.0000 </r>
       <r>   20.5315    0.0000 </r>
       <r>   20.5315    0.0000 </r>
       <r>   20.7578    0.0000 </r>
       <r>   20.7578    0.0000 </r>
       <r>   21.3286    0.0000 </r>
       <r>   21.3286    0.0000 </r>
       <r>   21.8777    0.0000 </r>
       <r>   21.8777    0.0000 </r>
       <r>   23.8886    0.0000 </r>
       <r>   23.8886    0.0000 </r>
       <r>   24.7199    0.0000 </r>
       <r>   24.7217    0.0000 </r>
       <r>   25.5853    0.0000 </r>
       <r>   25.6126    0.0000 </r>
       <r>   25.9304    0.0000 </r>
       <r>   25.9794    0.0000 </r>
       <r>   26.0771    0.0000 </r>
       <r>   26.4350    0.0000 </r>
      </set>
      <set comment="kpoint 24">
       <r>  -13.0677    1.0000 </r>
       <r>  -13.0677    1.0000 </r>
       <r>  -13.0646    1.0000 </r>
       <r>  -13.0646    1.0000 </r>
       <r>  -10.5187    1.0000 </r>
       <r>  -10.5187    1.0000 </r>
       <r>  -10.5102    1.0000 </r>
       <r>  -10.5102    1.0000 </r>
       <r>  -10.4971    1.0000 </r>
       <r>  -10.4971    1.0000 </r>
       <r>   -5.9115    1.0000 </r>
       <r>   -5.9115    1.0000 </r>
       <r>   -2.2108    1.0000 </r>
       <r>   -2.2108    1.0000 </r>
       <r>    2.6307    1.0000 </r>
       <r>    2.6307    1.0000 </r>
       <r>    4.2839    1.0000 </r>
       <r>    4.2839    1.0000 </r>
       <r>    4.9619    1.0000 </r>
       <r>    4.9619    1.0000 </r>
       <r>    5.9123    0.0000 </r>
       <r>    5.9123    0.0000 </r>
       <r>    7.0135    0.0000 </r>
       <r>    7.0135    0.0000 </r>
       <r>    9.2758    0.0000 </r>
       <r>    9.2758    0.0000 </r>
       <r>   11.2004    0.0000 </r>
       <r>   11.2004    0.0000 </r>
       <r>   11.7415    0.0000 </r>
       <r>   11.7415    0.0000 </r>
       <r>   13.5274    0.0000 </r>
       <r>   13.5274    0.0000 </r>
       <r>   13.9181    0.0000 </r>
       <r>   13.9182    0.0000 </r>
       <r>   15.7279    0.0000 </r>
[...]
       <r>    15.8810     0.0000     0.0000 </r>
       <r>    16.0270     0.0000     0.0000 </r>
       <r>    16.1729     0.0000     0.0000 </r>
       <r>    16.3188     0.0000     0.0000 </r>
       <r>    16.4648     0.0000     0.0000 </r>
       <r>    16.6107     0.0000     0.0000 </r>
       <r>    16.7566     0.0000     0.0000 </r>
       <r>    16.9026     0.0000     0.0000 </r>
       <r>    17.0485     0.0000     0.0000 </r>
       <r>    17.1945     0.0000     0.0000 </r>
       <r>    17.3404     0.0000     0.0000 </r>
       <r>    17.4863     0.0000     0.0000 </r>
       <r>    17.6323     0.0000     0.0000 </r>
       <r>    17.7782     0.0000     0.0000 </r>
       <r>    17.9241     0.0000     0.0000 </r>
       <r>    18.0701     0.0000     0.0000 </r>
       <r>    18.2160     0.0000     0.0000 </r>
       <r>    18.3620     0.0000     0.0000 </r>
       <r>    18.5079     0.0000     0.0000 </r>
       <r>    18.6538     0.0000     0.0000 </r>
       <r>    18.7998     0.0000     0.0000 </r>
       <r>    18.9457     0.0000     0.0000 </r>
       <r>    19.0917     0.0000     0.0000 </r>
       <r>    19.2376     0.0000     0.0000 </r>
       <r>    19.3835     0.0000     0.0000 </r>
       <r>    19.5295     0.0000     0.0000 </r>
       <r>    19.6754     0.0000     0.0000 </r>
       <r>    19.8213     0.0000     0.0000 </r>
       <r>    19.9673     0.0000     0.0000 </r>
       <r>    20.1132     0.0000     0.0000 </r>
       <r>    20.2592     0.0000     0.0000 </r>
       <r>    20.4051     0.0000     0.0000 </r>
       <r>    20.5510     0.0000     0.0000 </r>
       <r>    20.6970     0.0000     0.0000 </r>
       <r>    20.8429     0.0000     0.0000 </r>
       <r>    20.9888     0.0000     0.0000 </r>
       <r>    21.1348     0.0000     0.0000 </r>
       <r>    21.2807     0.0000     0.0000 </r>
       <r>    21.4267     0.0000     0.0000 </r>
       <r>    21.5726     0.0000     0.0000 </r>
       <r>    21.7185     0.0000     0.0000 </r>
       <r>    21.8645     0.0000     0.0000 </r>
       <r>    22.0104     0.0000     0.0000 </r>
       <r>    22.1563     0.0000     0.0000 </r>
       <r>    22.3023     0.0000     0.0000 </r>
       <r>    22.4482     0.0000     0.0000 </r>
       <r>    22.5942     0.0000     0.0000 </r>
       <r>    22.7401     0.0000     0.0000 </r>
       <r>    22.8860     0.0000     0.0000 </r>
       <r>    23.0320     0.0000     0.0000 </r>
       <r>    23.1779     0.0000     0.0000 </r>
       <r>    23.3238     0.0000     0.0000 </r>
       <r>    23.4698     0.0000     0.0000 </r>
       <r>    23.6157     0.0000     0.0000 </r>
       <r>    23.7617     0.0000     0.0000 </r>
       <r>    23.9076     0.0000     0.0000 </r>
       <r>    24.0535     0.0000     0.0000 </r>
       <r>    24.1995     0.0000     0.0000 </r>
       <r>    24.3454     0.0000     0.0000 </r>
       <r>    24.4913     0.0000     0.0000 </r>
       <r>    24.6373     0.0000     0.0000 </r>
       <r>    24.7832     0.0000     0.0000 </r>
       <r>    24.9292     0.0000     0.0000 </r>
       <r>    25.0751     0.0000     0.0000 </r>
       <r>    25.2210     0.0000     0.0000 </r>
       <r>    25.3670     0.0000     0.0000 </r>
       <r>    25.5129     0.0000     0.0000 </r>
       <r>    25.6588     0.0000     0.0000 </r>
       <r>    25.8048     0.0000     0.0000 </r>
       <r>    25.9507     0.0000     0.0000 </r>
       <r>    26.0967     0.0000     0.0000 </r>
       <r>    26.2426     0.0000     0.0000 </r>
       <r>    26.3885     0.0000     0.0000 </r>
       <r>    26.5345     0.0000     0.0000 </r>
       <r>    26.6804     0.0000     0.0000 </r>
       <r>    26.8263     0.0000     0.0000 </r>
       <r>    26.9723     0.0000     0.0000 </r>
       <r>    27.1182     0.0000     0.0000 </r>
       <r>    27.2642     0.0000     0.0000 </r>
       <r>    27.4101     0.0000     0.0000 </r>
       <r>    27.5560     0.0000     0.0000 </r>
       <r>    27.7020     0.0000     0.0000 </r>
       <r>    27.8479     0.0000     0.0000 </r>
       <r>    27.9938     0.0000     0.0000 </r>
       <r>    28.1398     0.0000     0.0000 </r>
       <r>    28.2857     0.0000     0.0000 </r>
       <r>    28.4317     0.0000     0.0000 </r>
       <r>    28.5776     0.0000     0.0000 </r>
       <r>    28.7235     0.0000     0.0000 </r>
      </set>
      <set comment="spin 4">
       <r>   -15.0578     0.0000     0.0000 </r>
       <r>   -14.9118     0.0000     0.0000 </r>
       <r>   -14.7659     0.0000     0.0000 </r>
       <r>   -14.6199     0.0000     0.0000 </r>
       <r>   -14.4740     0.0000     0.0000 </r>
       <r>   -14.3281     0.0000     0.0000 </r>
       <r>   -14.1821     0.0000     0.0000 </r>
       <r>   -14.0362     0.0000     0.0000 </r>
       <r>   -13.8903     0.0000     0.0000 </r>
       <r>   -13.7443     0.0000     0.0000 </r>
       <r>   -13.5984     0.0000     0.0000 </r>
       <r>   -13.4524     0.0000     0.0000 </r>
       <r>   -13.3065     0.0000     0.0000 </r>
       <r>   -13.1606     0.0000     0.0000 </r>
       <r>   -13.0146     0.0000     0.0000 </r>
       <r>   -12.8687     0.0000     0.0000 </r>
       <r>   -12.7228     0.0000     0.0000 </r>
       <r>   -12.5768     0.0000     0.0000 </r>
       <r>   -12.4309     0.0000     0.0000 </r>
       <r>   -12.2849     0.0000     0.0000 </r>
       <r>   -12.1390     0.0000     0.0000 </r>
       <r>   -11.9931     0.0000     0.0000 </r>
       <r>   -11.8471     0.0000     0.0000 </r>
       <r>   -11.7012     0.0000     0.0000 </r>
       <r>   -11.5553     0.0000     0.0000 </r>
       <r>   -11.4093     0.0000     0.0000 </r>
       <r>   -11.2634     0.0000     0.0000 </r>
       <r>   -11.1174     0.0000     0.0000 </r>
       <r>   -10.9715     0.0000     0.0000 </r>
       <r>   -10.8256     0.0000     0.0000 </r>
       <r>   -10.6796     0.0000     0.0000 </r>
       <r>   -10.5337     0.0000     0.0000 </r>
       <r>   -10.3878     0.0000     0.0000 </r>
       <r>   -10.2418     0.0000     0.0000 </r>
       <r>   -10.0959     0.0000     0.0000 </r>
       <r>    -9.9499     0.0000     0.0000 </r>
       <r>    -9.8040     0.0000     0.0000 </r>
       <r>    -9.6581     0.0000     0.0000 </r>
       <r>    -9.5121     0.0000     0.0000 </r>
       <r>    -9.3662     0.0000     0.0000 </r>
       <r>    -9.2203     0.0000     0.0000 </r>
       <r>    -9.0743     0.0000     0.0000 </r>
       <r>    -8.9284     0.0000     0.0000 </r>
       <r>    -8.7824     0.0000     0.0000 </r>
       <r>    -8.6365     0.0000     0.0000 </r>
       <r>    -8.4906     0.0000     0.0000 </r>
       <r>    -8.3446     0.0000     0.0000 </r>
       <r>    -8.1987     0.0000     0.0000 </r>
       <r>    -8.0528     0.0000     0.0000 </r>
       <r>    -7.9068     0.0000     0.0000 </r>
       <r>    -7.7609     0.0000     0.0000 </r>
       <r>    -7.6149     0.0000     0.0000 </r>
       <r>    -7.4690     0.0000     0.0000 </r>
       <r>    -7.3231     0.0000     0.0000 </r>
       <r>    -7.1771     0.0000     0.0000 </r>
       <r>    -7.0312     0.0000     0.0000 </r>
       <r>    -6.8853     0.0000     0.0000 </r>
       <r>    -6.7393     0.0000     0.0000 </r>
       <r>    -6.5934     0.0000     0.0000 </r>
       <r>    -6.4474     0.0000     0.0000 </r>
       <r>    -6.3015     0.0000     0.0000 </r>
       <r>    -6.1556     0.0000     0.0000 </r>
       <r>    -6.0096     0.0000     0.0000 </r>
       <r>    -5.8637     0.0000     0.0000 </r>
       <r>    -5.7178     0.0000     0.0000 </r>
       <r>    -5.5718     0.0000     0.0000 </r>
       <r>    -5.4259     0.0000     0.0000 </r>
       <r>    -5.2799     0.0000     0.0000 </r>
       <r>    -5.1340     0.0000     0.0000 </r>
       <r>    -4.9881     0.0000     0.0000 </r>
       <r>    -4.8421     0.0000     0.0000 </r>
       <r>    -4.6962     0.0000     0.0000 </r>
       <r>    -4.5503     0.0000     0.0000 </r>
       <r>    -4.4043     0.0000     0.0000 </r>
       <r>    -4.2584     0.0000     0.0000 </r>
       <r>    -4.1124     0.0000     0.0000 </r>
       <r>    -3.9665     0.0000     0.0000 </r>
       <r>    -3.8206     0.0000     0.0000 </r>
       <r>    -3.6746     0.0000     0.0000 </r>
       <r>    -3.5287     0.0000     0.0000 </r>
       <r>    -3.3827     0.0000     0.0000 </r>
       <r>    -3.2368     0.0000     0.0000 </r>
       <r>    -3.0909     0.0000     0.0000 </r>
       <r>    -2.9449     0.0000     0.0000 </r>
       <r>    -2.7990     0.0000     0.0000 </r>
       <r>    -2.6531     0.0000     0.0000 </r>
       <r>    -2.5071     0.0000     0.0000 </r>
       <r>    -2.3612     0.0000     0.0000 </r>
       <r>    -2.2152     0.0000     0.0000 </r>
       <r>    -2.0693     0.0000     0.0000 </r>
       <r>    -1.9234     0.0000     0.0000 </r>
       <r>    -1.7774     0.0000     0.0000 </r>
       <r>    -1.6315     0.0000     0.0000 </r>
       <r>    -1.4856     0.0000     0.0000 </r>
       <r>    -1.3396     0.0000     0.0000 </r>
       <r>    -1.1937     0.0000     0.0000 </r>
       <r>    -1.0477     0.0000     0.0000 </r>
       <r>    -0.9018     0.0000     0.0000 </r>
       <r>    -0.7559     0.0000     0.0000 </r>
       <r>    -0.6099     0.0000     0.0000 </r>
       <r>    -0.4640     0.0000     0.0000 </r>
       <r>    -0.3181     0.0000     0.0000 </r>
       <r>    -0.1721     0.0000     0.0000 </r>
       <r>    -0.0262     0.0000     0.0000 </r>
       <r>     0.1198     0.0000     0.0000 </r>
       <r>     0.2657     0.0000     0.0000 </r>
       <r>     0.4116     0.0000     0.0000 </r>
       <r>     0.5576     0.0000     0.0000 </r>
       <r>     0.7035     0.0000     0.0000 </r>
       <r>     0.8494     0.0000     0.0000 </r>
       <r>     0.9954     0.0000     0.0000 </r>
       <r>     1.1413     0.0000     0.0000 </r>
       <r>     1.2873     0.0000     0.0000 </r>
       <r>     1.4332     0.0000     0.0000 </r>
       <r>     1.5791     0.0000     0.0000 </r>
       <r>     1.7251     0.0000     0.0000 </r>
       <r>     1.8710     0.0000     0.0000 </r>
       <r>     2.0169     0.0000     0.0000 </r>
       <r>     2.1629     0.0000     0.0000 </r>
       <r>     2.3088     0.0000     0.0000 </r>
       <r>     2.4548     0.0000     0.0000 </r>
       <r>     2.6007     0.0000     0.0000 </r>
       <r>     2.7466     0.0000     0.0000 </r>
       <r>     2.8926     0.0000     0.0000 </r>
       <r>     3.0385     0.0000     0.0000 </r>
       <r>     3.1844     0.0000     0.0000 </r>
       <r>     3.3304     0.0000     0.0000 </r>
       <r>     3.4763     0.0000     0.0000 </r>
       <r>     3.6223     0.0000     0.0000 </r>
       <r>     3.7682     0.0000     0.0000 </r>
       <r>     3.9141     0.0000     0.0000 </r>
       <r>     4.0601     0.0000     0.0000 </r>
       <r>     4.2060     0.0000     0.0000 </r>
       <r>     4.3519     0.0000     0.0000 </r>
       <r>     4.4979     0.0000     0.0000 </r>
       <r>     4.6438     0.0000     0.0000 </r>
       <r>     4.7898     0.0000     0.0000 </r>
       <r>     4.9357     0.0000     0.0000 </r>
       <r>     5.0816     0.0000     0.0000 </r>
       <r>     5.2276     0.0000     0.0000 </r>
       <r>     5.3735     0.0000     0.0000 </r>
       <r>     5.5194     0.0000     0.0000 </r>
       <r>     5.6654     0.0000     0.0000 </r>
       <r>     5.8113     0.0000     0.0000 </r>
       <r>     5.9573     0.0000     0.0000 </r>
       <r>     6.1032     0.0000     0.0000 </r>
       <r>     6.2491     0.0000     0.0000 </r>
       <r>     6.3951     0.0000     0.0000 </r>
       <r>     6.5410     0.0000     0.0000 </r>
       <r>     6.6869     0.0000     0.0000 </r>
       <r>     6.8329     0.0000     0.0000 </r>
       <r>     6.9788     0.0000     0.0000 </r>
       <r>     7.1248     0.0000     0.0000 </r>
       <r>     7.2707     0.0000     0.0000 </r>
       <r>     7.4166     0.0000     0.0000 </r>
       <r>     7.5626     0.0000     0.0000 </r>
       <r>     7.7085     0.0000     0.0000 </r>
       <r>     7.8545     0.0000     0.0000 </r>
       <r>     8.0004     0.0000     0.0000 </r>
       <r>     8.1463     0.0000     0.0000 </r>
       <r>     8.2923     0.0000     0.0000 </r>
       <r>     8.4382     0.0000     0.0000 </r>
       <r>     8.5841     0.0000     0.0000 </r>
       <r>     8.7301     0.0000     0.0000 </r>
       <r>     8.8760     0.0000     0.0000 </r>
       <r>     9.0220     0.0000     0.0000 </r>
       <r>     9.1679     0.0000     0.0000 </r>
       <r>     9.3138     0.0000     0.0000 </r>
       <r>     9.4598     0.0000     0.0000 </r>
       <r>     9.6057     0.0000     0.0000 </r>
       <r>     9.7516     0.0000     0.0000 </r>
       <r>     9.8976     0.0000     0.0000 </r>
       <r>    10.0435     0.0000     0.0000 </r>
       <r>    10.1895     0.0000     0.0000 </r>
       <r>    10.3354     0.0000     0.0000 </r>
       <r>    10.4813     0.0000     0.0000 </r>
       <r>    10.6273     0.0000     0.0000 </r>
       <r>    10.7732     0.0000     0.0000 </r>
       <r>    10.9191     0.0000     0.0000 </r>
       <r>    11.0651     0.0000     0.0000 </r>
       <r>    11.2110     0.0000     0.0000 </r>
       <r>    11.3570     0.0000     0.0000 </r>
       <r>    11.5029     0.0000     0.0000 </r>
       <r>    11.6488     0.0000     0.0000 </r>
       <r>    11.7948     0.0000     0.0000 </r>
       <r>    11.9407     0.0000     0.0000 </r>
       <r>    12.0866     0.0000     0.0000 </r>
       <r>    12.2326     0.0000     0.0000 </r>
       <r>    12.3785     0.0000     0.0000 </r>
       <r>    12.5245     0.0000     0.0000 </r>
       <r>    12.6704     0.0000     0.0000 </r>
       <r>    12.8163     0.0000     0.0000 </r>
       <r>    12.9623     0.0000     0.0000 </r>
       <r>    13.1082     0.0000     0.0000 </r>
       <r>    13.2541     0.0000     0.0000 </r>
       <r>    13.4001     0.0000     0.0000 </r>
       <r>    13.5460     0.0000     0.0000 </r>
       <r>    13.6920     0.0000     0.0000 </r>
       <r>    13.8379     0.0000     0.0000 </r>
       <r>    13.9838     0.0000     0.0000 </r>
       <r>    14.1298     0.0000     0.0000 </r>
       <r>    14.2757     0.0000     0.0000 </r>
       <r>    14.4216     0.0000     0.0000 </r>
       <r>    14.5676     0.0000     0.0000 </r>
       <r>    14.7135     0.0000     0.0000 </r>
       <r>    14.8595     0.0000     0.0000 </r>
       <r>    15.0054     0.0000     0.0000 </r>
       <r>    15.1513     0.0000     0.0000 </r>
       <r>    15.2973     0.0000     0.0000 </r>
       <r>    15.4432     0.0000     0.0000 </r>
       <r>    15.5891     0.0000     0.0000 </r>
       <r>    15.7351     0.0000     0.0000 </r>
       <r>    15.8810     0.0000     0.0000 </r>
       <r>    16.0270     0.0000     0.0000 </r>
       <r>    16.1729     0.0000     0.0000 </r>
       <r>    16.3188     0.0000     0.0000 </r>
       <r>    16.4648     0.0000     0.0000 </r>
       <r>    16.6107     0.0000     0.0000 </r>
       <r>    16.7566     0.0000     0.0000 </r>
       <r>    16.9026     0.0000     0.0000 </r>
       <r>    17.0485     0.0000     0.0000 </r>
       <r>    17.1945     0.0000     0.0000 </r>
       <r>    17.3404     0.0000     0.0000 </r>
       <r>    17.4863     0.0000     0.0000 </r>
       <r>    17.6323     0.0000     0.0000 </r>
       <r>    17.7782     0.0000     0.0000 </r>
       <r>    17.9241     0.0000     0.0000 </r>
       <r>    18.0701     0.0000     0.0000 </r>
       <r>    18.2160     0.0000     0.0000 </r>
       <r>    18.3620     0.0000     0.0000 </r>
       <r>    18.5079     0.0000     0.0000 </r>
       <r>    18.6538     0.0000     0.0000 </r>
       <r>    18.7998     0.0000     0.0000 </r>
       <r>    18.9457     0.0000     0.0000 </r>
       <r>    19.0917     0.0000     0.0000 </r>
       <r>    19.2376     0.0000     0.0000 </r>
       <r>    19.3835     0.0000     0.0000 </r>
       <r>    19.5295     0.0000     0.0000 </r>
       <r>    19.6754     0.0000     0.0000 </r>
       <r>    19.8213     0.0000     0.0000 </r>
       <r>    19.9673     0.0000     0.0000 </r>
       <r>    20.1132     0.0000     0.0000 </r>
       <r>    20.2592     0.0000     0.0000 </r>
       <r>    20.4051     0.0000     0.0000 </r>
       <r>    20.5510     0.0000     0.0000 </r>
       <r>    20.6970     0.0000     0.0000 </r>
       <r>    20.8429     0.0000     0.0000 </r>
       <r>    20.9888     0.0000     0.0000 </r>
       <r>    21.1348     0.0000     0.0000 </r>
       <r>    21.2807     0.0000     0.0000 </r>
       <r>    21.4267     0.0000     0.0000 </r>
       <r>    21.5726     0.0000     0.0000 </r>
       <r>    21.7185     0.0000     0.0000 </r>
       <r>    21.8645     0.0000     0.0000 </r>
       <r>    22.0104     0.0000     0.0000 </r>
       <r>    22.1563     0.0000     0.0000 </r>
       <r>    22.3023     0.0000     0.0000 </r>
       <r>    22.4482     0.0000     0.0000 </r>
       <r>    22.5942     0.0000     0.0000 </r>
       <r>    22.7401     0.0000     0.0000 </r>
       <r>    22.8860     0.0000     0.0000 </r>
       <r>    23.0320     0.0000     0.0000 </r>
       <r>    23.1779     0.0000     0.0000 </r>
       <r>    23.3238     0.0000     0.0000 </r>
       <r>    23.4698     0.0000     0.0000 </r>
       <r>    23.6157     0.0000     0.0000 </r>
       <r>    23.7617     0.0000     0.0000 </r>
       <r>    23.9076     0.0000     0.0000 </r>
       <r>    24.0535     0.0000     0.0000 </r>
       <r>    24.1995     0.0000     0.0000 </r>
       <r>    24.3454     0.0000     0.0000 </r>
       <r>    24.4913     0.0000     0.0000 </r>
       <r>    24.6373     0.0000     0.0000 </r>
       <r>    24.7832     0.0000     0.0000 </r>
       <r>    24.9292     0.0000     0.0000 </r>
       <r>    25.0751     0.0000     0.0000 </r>
       <r>    25.2210     0.0000     0.0000 </r>
       <r>    25.3670     0.0000     0.0000 </r>
       <r>    25.5129     0.0000     0.0000 </r>
       <r>    25.6588     0.0000     0.0000 </r>
       <r>    25.8048     0.0000     0.0000 </r>
       <r>    25.9507     0.0000     0.0000 </r>
       <r>    26.0967     0.0000     0.0000 </r>
       <r>    26.2426     0.0000     0.0000 </r>
       <r>    26.3885     0.0000     0.0000 </r>
       <r>    26.5345     0.0000     0.0000 </r>
       <r>    26.6804     0.0000     0.0000 </r>
       <r>    26.8263     0.0000     0.0000 </r>
       <r>    26.9723     0.0000     0.0000 </r>
       <r>    27.1182     0.0000     0.0000 </r>
       <r>    27.2642     0.0000     0.0000 </r>
       <r>    27.4101     0.0000     0.0000 </r>
       <r>    27.5560     0.0000     0.0000 </r>
       <r>    27.7020     0.0000     0.0000 </r>
       <r>    27.8479     0.0000     0.0000 </r>
       <r>    27.9938     0.0000     0.0000 </r>
       <r>    28.1398     0.0000     0.0000 </r>
       <r>    28.2857     0.0000     0.0000 </r>
       <r>    28.4317     0.0000     0.0000 </r>
       <r>    28.5776     0.0000     0.0000 </r>
       <r>    28.7235     0.0000     0.0000 </r>
      </set>
     </set>
    </array>
   </total>
  </dos>
 </calculation>
 <structure name="finalpos" >
  <crystal>
   <varray name="basis" >
    <v>       0.00000000       3.28431199       3.28431199 </v>
    <v>       3.28431199       0.00000000       3.28431199 </v>
    <v>       3.28431199       3.28431199       0.00000000 </v>
   </varray>
   <i name="volume">     70.85381075 </i>
   <varray name="rec_basis" >
    <v>      -0.15223889       0.15223889       0.15223889 </v>
    <v>       0.15223889      -0.15223889       0.15223889 </v>
    <v>       0.15223889       0.15223889      -0.15223889 </v>
   </varray>
  </crystal>
  <varray name="positions" >
   <v>       0.00000000       0.00000000       0.00000000 </v>
   <v>       0.50000000       0.50000000       0.50000000 </v>
  </varray>
 </structure>
</modeling>
