 vasp.5.4.4.18Apr17-6-g9f103f2a35 (build Mar 20 2018 18:07:30) complex           
 executed on             LinuxGNU date 2020.07.03  13:39:45
 running on    8 total cores
 distrk:  each k-point on    8 cores,    1 groups
 distr:  one band on NCORES_PER_BAND=   2 cores,    4 groups


--------------------------------------------------------------------------------------------------------


 INCAR:
 POTCAR:    PAW_PBE Te 08Apr2002                  
 POTCAR:    PAW_PBE Pb_d 06Sep2000                
 POTCAR:    PAW_PBE Te 08Apr2002                  
   VRHFIN =Te: s2p4                                                             
   LEXCH  = PE                                                                  
   EATOM  =   223.2721 eV,   16.4100 Ry                                         
                                                                                
   TITEL  = PAW_PBE Te 08Apr2002                                                
   LULTRA =        F    use ultrasoft PP ?                                      
   IUNSCR =        1    unscreen: 0-lin 1-nonlin 2-no                           
   RPACOR =    2.200    partial core radius                                     
   POMASS =  127.600; ZVAL   =    6.000    mass and valenz                      
   RCORE  =    2.300    outmost cutoff radius                                   
   RWIGS  =    2.900; RWIGS  =    1.535    wigner-seitz radius (au A)           
   ENMAX  =  174.982; ENMIN  =  131.236 eV                                      
   ICORE  =        3    local potential                                         
   LCOR   =        T    correct aug charges                                     
   LPAW   =        T    paw PP                                                  
   EAUG   =  368.792                                                            
   DEXC   =    0.000                                                            
   RMAX   =    2.345    core radius for proj-oper                               
   RAUG   =    1.300    factor for augmentation sphere                          
   RDEP   =    2.397    radius for radial grids                                 
   RDEPT  =    2.174    core radius for aug-charge                              
                                                                                
   Atomic configuration                                                         
   13 entries                                                                   
     n  l   j            E        occ.                                          
     1  0  0.50    -31621.2075   2.0000                                         
     2  0  0.50     -4848.7941   2.0000                                         
     2  1  1.50     -4352.1960   6.0000                                         
     3  0  0.50      -964.9612   2.0000                                         
     3  1  1.50      -803.6179   6.0000                                         
     3  2  2.50      -559.8710  10.0000                                         
     4  0  0.50      -164.3522   2.0000                                         
     4  1  1.50      -114.3756   6.0000                                         
     4  2  2.50       -41.6483  10.0000                                         
     5  0  0.50       -15.1072   2.0000                                         
     5  1  0.50        -5.9526   4.0000                                         
     5  2  1.50        -5.4423   0.0000                                         
     4  3  2.50        -5.4423   0.0000                                         
   Description                                                                  
     l       E           TYP  RCUT    TYP  RCUT                                 
     0    -15.1072389     23  2.300                                             
     0    -16.4678215     23  2.300                                             
     1     -5.9526306     23  2.300                                             
     1     -2.4873968     23  2.300                                             
     2     -5.4423304     23  2.300                                             
     3     -1.3605826     23  2.300                                             
  local pseudopotential read in
  partial core-charges read in
  partial kinetic energy density read in
  atomic valenz-charges read in
  non local Contribution for L=           0  read in
    real space projection operators read in
  non local Contribution for L=           0  read in
    real space projection operators read in
  non local Contribution for L=           1  read in
    real space projection operators read in
  non local Contribution for L=           1  read in
    real space projection operators read in
  non local Contribution for L=           2  read in
    real space projection operators read in
    PAW grid and wavefunctions read in

   number of l-projection  operators is LMAX  =           5
   number of lm-projection operators is LMMAX =          13

 POTCAR:    PAW_PBE Pb_d 06Sep2000                
   VRHFIN =Pb:                                                                  
   LEXCH  = PE                                                                  
   EATOM  =  1661.6185 eV,  122.1255 Ry                                         
                                                                                
   TITEL  = PAW_PBE Pb_d 06Sep2000                                              
   LULTRA =        F    use ultrasoft PP ?                                      
   IUNSCR =        1    unscreen: 0-lin 1-nonlin 2-no                           
   RPACOR =    2.200    partial core radius                                     
   POMASS =  207.200; ZVAL   =   14.000    mass and valenz                      
   RCORE  =    2.500    outmost cutoff radius                                   
   RWIGS  =    3.260; RWIGS  =    1.725    wigner-seitz radius (au A)           
   ENMAX  =  237.835; ENMIN  =  178.376 eV                                      
   ICORE  =        3    local potential                                         
   LCOR   =        T    correct aug charges                                     
   LPAW   =        T    paw PP                                                  
   EAUG   =  391.914                                                            
   DEXC   =    0.000                                                            
   RMAX   =    2.565    core radius for proj-oper                               
   RAUG   =    1.300    factor for augmentation sphere                          
   RDEP   =    2.643    radius for radial grids                                 
   RDEPT  =    2.092    core radius for aug-charge                              
                                                                                
   Atomic configuration                                                         
   16 entries                                                                   
     n  l   j            E        occ.                                          
     1  0  0.50    -88091.8466   2.0000                                         
     2  0  0.50    -15753.4197   2.0000                                         
     2  1  1.50    -13508.1797   6.0000                                         
     3  0  0.50     -3781.7194   2.0000                                         
     3  1  1.50     -3138.2529   6.0000                                         
     3  2  2.50     -2483.2977  10.0000                                         
     4  0  0.50      -856.2895   2.0000                                         
     4  1  1.50      -645.4942   6.0000                                         
     4  2  2.50      -401.8768  10.0000                                         
     4  3  3.50      -132.9059  14.0000                                         
     5  0  0.50      -144.0950   2.0000                                         
     5  1  1.50       -85.7879   6.0000                                         
     5  2  2.50       -21.1769  10.0000                                         
     6  0  0.50       -12.0372   2.0000                                         
     6  1  1.50        -3.4971   2.0000                                         
     5  3  2.50        -2.7212   0.0000                                         
   Description                                                                  
     l       E           TYP  RCUT    TYP  RCUT                                 
     2    -21.1768523     23  2.500                                             
     2      1.3605826     23  2.500                                             
     0    -12.0371562     23  2.500                                             
     0     13.6058260     23  2.500                                             
     1     -3.4971339     23  2.500                                             
     1     13.6058260     23  2.500                                             
     3     -1.3605826      7  2.500                                             
  local pseudopotential read in
  partial core-charges read in
  partial kinetic energy density read in
  atomic valenz-charges read in
  non local Contribution for L=           2  read in
    real space projection operators read in
  non local Contribution for L=           2  read in
    real space projection operators read in
  non local Contribution for L=           0  read in
    real space projection operators read in
  non local Contribution for L=           0  read in
    real space projection operators read in
  non local Contribution for L=           1  read in
    real space projection operators read in
  non local Contribution for L=           1  read in
    real space projection operators read in
    PAW grid and wavefunctions read in

   number of l-projection  operators is LMAX  =           6
   number of lm-projection operators is LMMAX =          18

  PAW_PBE Te 08Apr2002                  :
 energy of atom  1       EATOM= -223.2721
 kinetic energy error for atom=    0.0004 (will be added to EATOM!!)
  PAW_PBE Pb_d 06Sep2000                :
 energy of atom  2       EATOM=-1661.6185
 kinetic energy error for atom=    0.0014 (will be added to EATOM!!)


 POSCAR: Te1 Pb1                                 
  positions in direct lattice
  No initial velocities read in
 exchange correlation table for  LEXCH =        8
   RHO(1)=    0.500       N(1)  =     2000
   RHO(2)=  100.500       N(2)  =     4000



--------------------------------------------------------------------------------------------------------


 ion  position               nearest neighbor table
   1  0.000  0.000  0.000-   2 3.28   2 3.28   2 3.28   2 3.28   2 3.28   2 3.28
   2  0.500  0.500  0.500-   1 3.28   1 3.28   1 3.28   1 3.28   1 3.28   1 3.28


IMPORTANT INFORMATION: All symmetrisations will be switched off!
NOSYMM: (Re-)initialisation of all symmetry stuff for point group C_1.



 KPOINTS: Non SCF run along symmetry lines        
  k-points in reciprocal lattice
Space group operators:
 irot       det(A)        alpha          n_x          n_y          n_z        tau_x        tau_y        tau_z
    1     1.000000     0.000000     1.000000     0.000000     0.000000     0.000000     0.000000     0.000000


--------------------------------------------------------------------------------------------------------




 Dimension of arrays:
   k-points           NKPTS =    200   k-points in BZ     NKDIM =    200   number of bands    NBANDS=     60
   number of dos      NEDOS =    301   number of ions     NIONS =      2
   non local maximal  LDIM  =      6   non local SUM 2l+1 LMDIM =     18
   total plane-waves  NPLWV =  64000
   max r-space proj   IRMAX =      1   max aug-charges    IRDMAX= 420444
   dimension x,y,z NGX =    40 NGY =   40 NGZ =   40
   dimension x,y,z NGXF=    80 NGYF=   80 NGZF=   80
   support grid    NGXF=   160 NGYF=  160 NGZF=  160
   ions per type =               1   1
   NGX,Y,Z   is equivalent  to a cutoff of  14.32, 14.32, 14.32 a.u.
   NGXF,Y,Z  is equivalent  to a cutoff of  28.63, 28.63, 28.63 a.u.

 SYSTEM =  PbTe                                    
 POSCAR =  Te1 Pb1                                 

 Startparameter for this run:
   NWRITE =      2    write-flag & timer
   PREC   = accura    normal or accurate (medium, high low for compatibility)
   ISTART =      0    job   : 0-new  1-cont  2-samecut
   ICHARG =     11    charge: 1-file 2-atom 10-const
   ISPIN  =      1    spin polarized calculation?
   LNONCOLLINEAR =      T non collinear calculations
   LSORBIT =      T    spin-orbit coupling
   INIWAV =      1    electr: 0-lowe 1-rand  2-diag
   LASPH  =      F    aspherical Exc in radial PAW
   METAGGA=      F    non-selfconsistent MetaGGA calc.

 Electronic Relaxation 1
   ENCUT  =  600.0 eV  44.10 Ry    6.64 a.u.   9.28  9.28  9.28*2*pi/ulx,y,z
   ENINI  =  600.0     initial cutoff
   ENAUG  =  391.9 eV  augmentation charge cutoff
   NELM   =     60;   NELMIN=  2; NELMDL=  0     # of ELM steps 
   EDIFF  = 0.1E-06   stopping-criterion for ELM
   LREAL  =      F    real-space projection
   NLSPLINE    = F    spline interpolate recip. space projectors
   LCOMPAT=      F    compatible to vasp.4.4
   GGA_COMPAT  = F    GGA compatible to vasp.4.4-vasp.4.6
   LMAXPAW     = -100 max onsite density
   LMAXMIX     =    4 max onsite mixed and CHGCAR
   VOSKOWN=      0    Vosko Wilk Nusair interpolation
   ROPT   =    0.00000   0.00000
 Ionic relaxation
   EDIFFG = -.1E-02   stopping-criterion for IOM
   NSW    =      0    number of steps for IOM
   NBLOCK =      1;   KBLOCK =      1    inner block; outer block 
   IBRION =     -1    ionic relax: 0-MD 1-quasi-New 2-CG
   NFREE  =      0    steps in history (QN), initial steepest desc. (CG)
   ISIF   =      2    stress and relaxation
   IWAVPR =     10    prediction:  0-non 1-charg 2-wave 3-comb
   ISYM   =     -1    0-nonsym 1-usesym 2-fastsym
   LCORR  =      T    Harris-Foulkes like correction to forces

   POTIM  = 0.5000    time-step for ionic-motion
   TEIN   =    0.0    initial temperature
   TEBEG  =    0.0;   TEEND  =   0.0 temperature during run
   SMASS  =  -3.00    Nose mass-parameter (am)
   estimated Nose-frequenzy (Omega)   =  0.10E-29 period in steps =****** mass=  -0.493E-27a.u.
   SCALEE = 1.0000    scale energy and forces
   NPACO  =    256;   APACO  = 16.0  distance and # of slots for P.C.
   PSTRESS=    0.0 pullay stress

  Mass of Ions in am
   POMASS = 127.60207.20
  Ionic Valenz
   ZVAL   =   6.00 14.00
  Atomic Wigner-Seitz radii
   RWIGS  =  -1.00 -1.00
  virtual crystal weights 
   VCA    =   1.00  1.00
   NELECT =      20.0000    total number of electrons
   NUPDOWN=      -1.0000    fix difference up-down

 DOS related values:
   EMIN   =  10.00;   EMAX   =-10.00  energy-range for DOS
   EFERMI =   0.00
   ISMEAR =     0;   SIGMA  =   0.01  broadening in eV -4-tet -1-fermi 0-gaus

 Electronic relaxation 2 (details)
   IALGO  =     58    algorithm
   LDIAG  =      T    sub-space diagonalisation (order eigenvalues)
   LSUBROT=      F    optimize rotation matrix (better conditioning)
   TURBO    =      0    0=normal 1=particle mesh
   IRESTART =      0    0=no restart 2=restart with 2 vectors
   NREBOOT  =      0    no. of reboots
   NMIN     =      0    reboot dimension
   EREF     =   0.00    reference energy to select bands
   IMIX   =      4    mixing-type and parameters
     AMIX     =   0.40;   BMIX     =  1.00
     AMIX_MAG =   1.60;   BMIX_MAG =  1.00
     AMIN     =   0.10
     WC   =   100.;   INIMIX=   1;  MIXPRE=   1;  MAXMIX= -45

 Intra band minimization:
   WEIMIN = 0.0000     energy-eigenvalue tresh-hold
   EBREAK =  0.42E-09  absolut break condition
   DEPER  =   0.30     relativ break condition  

   TIME   =   0.40     timestep for ELM

  volume/ion in A,a.u.               =      35.43       239.07
  Fermi-wavevector in a.u.,A,eV,Ry     =   1.073900  2.029376 15.691065  1.153261
  Thomas-Fermi vector in A             =   2.209713

 Write flags
   LWAVE        =      F    write WAVECAR
   LDOWNSAMPLE  =      F    k-point downsampling of WAVECAR
   LCHARG       =      F    write CHGCAR
   LVTOT        =      F    write LOCPOT, total local potential
   LVHAR        =      F    write LOCPOT, Hartree potential only
   LELF         =      F    write electronic localiz. function (ELF)
   LORBIT       =      0    0 simple, 1 ext, 2 COOP (PROOUT), +10 PAW based schemes


 Dipole corrections
   LMONO  =      F    monopole corrections only (constant potential shift)
   LDIPOL =      F    correct potential (dipole corrections)
   IDIPOL =      0    1-x, 2-y, 3-z, 4-all directions 
   EPSILON=  1.0000000 bulk dielectric constant

 Exchange correlation treatment:
   GGA     =    --    GGA type
   LEXCH   =     8    internal setting for exchange type
   VOSKOWN=      0    Vosko Wilk Nusair interpolation
   LHFCALC =     F    Hartree Fock is set to
   LHFONE  =     F    Hartree Fock one center treatment
   AEXX    =    0.0000 exact exchange contribution

 Linear response parameters
   LEPSILON=     F    determine dielectric tensor
   LRPA    =     F    only Hartree local field effects (RPA)
   LNABLA  =     F    use nabla operator in PAW spheres
   LVEL    =     F    velocity operator in full k-point grid
   LINTERFAST=   F  fast interpolation
   KINTER  =     0    interpolate to denser k-point grid
   CSHIFT  =0.1000    complex shift for real part using Kramers Kronig
   OMEGAMAX=  -1.0    maximum frequency
   DEG_THRESHOLD= 0.2000000E-02 threshold for treating states as degnerate
   RTIME   =   -0.100 relaxation time in fs
  (WPLASMAI=    0.000 imaginary part of plasma frequency in eV, 0.658/RTIME)
   DFIELD  = 0.0000000 0.0000000 0.0000000 field for delta impulse in time

 Orbital magnetization related:
   ORBITALMAG=     F  switch on orbital magnetization
   LCHIMAG   =     F  perturbation theory with respect to B field
   DQ        =  0.001000  dq finite difference perturbation B field
   LLRAUG    =     F  two centre corrections for induced B field



--------------------------------------------------------------------------------------------------------


 Static calculation
 charge density and potential remain constant during run
 non collinear spin polarized calculation
 Conjugate gradient for all bands (Freysoldt, et al. PRB 79, 241103 (2009))
 preconditioned conjugated gradient   charged. constant during bandupdate  
 perform sub-space diagonalisation
    before iterative eigenvector-optimisation
 no mixing
 using additional bands           50
 reciprocal scheme for non local part
 use partial core corrections
 calculate Harris-corrections to forces   (improved forces if not selfconsistent)
 use gradient corrections 
 WARNING: stress and forces are not correct
  (second derivative of E(xc) not defined)
 use of overlap-Matrix (Vanderbilt PP)
 Gauss-broadening in eV      SIGMA  =   0.01


--------------------------------------------------------------------------------------------------------


  energy-cutoff  :      600.00
  volume of cell :       70.85
      direct lattice vectors                 reciprocal lattice vectors
     0.000000000  3.284311990  3.284311990    -0.152238886  0.152238886  0.152238886
     3.284311990  0.000000000  3.284311990     0.152238886 -0.152238886  0.152238886
     3.284311990  3.284311990  0.000000000     0.152238886  0.152238886 -0.152238886

  length of vectors
     4.644718559  4.644718559  4.644718559     0.263685486  0.263685486  0.263685486



 k-points in units of 2pi/SCALE and weight: Non SCF run along symmetry lines        
   0.00000000  0.00000000  0.00000000       0.005
   0.00000000  0.00524962  0.00000000       0.005
   0.00000000  0.01049923  0.00000000       0.005
   0.00000000  0.01574885  0.00000000       0.005
   0.00000000  0.02099847  0.00000000       0.005
   0.00000000  0.02624808  0.00000000       0.005
   0.00000000  0.03149770  0.00000000       0.005
  -0.00000000  0.03674732  0.00000000       0.005
   0.00000000  0.04199693  0.00000000       0.005
   0.00000000  0.04724655  0.00000000       0.005
   0.00000000  0.05249617  0.00000000       0.005
   0.00000000  0.05774578  0.00000000       0.005
   0.00000000  0.06299540  0.00000000       0.005
   0.00000000  0.06824502  0.00000000       0.005
  -0.00000000  0.07349463  0.00000000       0.005
   0.00000000  0.07874425  0.00000000       0.005
   0.00000000  0.08399387  0.00000000       0.005
   0.00000000  0.08924349  0.00000000       0.005
   0.00000000  0.09449310  0.00000000       0.005
   0.00000000  0.09974272  0.00000000       0.005
   0.00000000  0.10499234  0.00000000       0.005
   0.00000000  0.11024195  0.00000000       0.005
   0.00000000  0.11549157  0.00000000       0.005
   0.00000000  0.12074119  0.00000000       0.005
   0.00000000  0.12599080  0.00000000       0.005
   0.00000000  0.13124042  0.00000000       0.005
   0.00000000  0.13649004  0.00000000       0.005
   0.00000000  0.14173965  0.00000000       0.005
  -0.00000000  0.14698927  0.00000000       0.005
   0.00000000  0.15223889  0.00000000       0.005
   0.00000000  0.15223889  0.00000000       0.005
   0.00507463  0.15223889  0.00000000       0.005
   0.01014926  0.15223889  0.00000000       0.005
   0.01522389  0.15223889  0.00000000       0.005
   0.02029852  0.15223889  0.00000000       0.005
   0.02537315  0.15223889  0.00000000       0.005
   0.03044778  0.15223889  0.00000000       0.005
   0.03552241  0.15223889  0.00000000       0.005
   0.04059704  0.15223889  0.00000000       0.005
   0.04567167  0.15223889 -0.00000000       0.005
   0.05074630  0.15223889  0.00000000       0.005
   0.05582093  0.15223889 -0.00000000       0.005
   0.06089555  0.15223889 -0.00000000       0.005
   0.06597018  0.15223889  0.00000000       0.005
   0.07104481  0.15223889  0.00000000       0.005
   0.07611944  0.15223889  0.00000000       0.005
   0.07611944  0.15223889  0.00000000       0.005
   0.07957942  0.14877891 -0.00000000       0.005
   0.08303939  0.14531894 -0.00000000       0.005
   0.08649937  0.14185896 -0.00000000       0.005
   0.08995934  0.13839899 -0.00000000       0.005
   0.09341932  0.13493901 -0.00000000       0.005
   0.09687929  0.13147904 -0.00000000       0.005
   0.10033927  0.12801906 -0.00000000       0.005
   0.10379924  0.12455909 -0.00000000       0.005
   0.10725922  0.12109911 -0.00000000       0.005
   0.11071919  0.11763914 -0.00000000       0.005
   0.11417916  0.11417916 -0.00000000       0.005
   0.11417916  0.11417916 -0.00000000       0.005
   0.11049597  0.11049597 -0.00000000       0.005
   0.10681277  0.10681277 -0.00000000       0.005
   0.10312957  0.10312957  0.00000000       0.005
   0.09944637  0.09944637 -0.00000000       0.005
   0.09576317  0.09576317  0.00000000       0.005
   0.09207997  0.09207997 -0.00000000       0.005
   0.08839677  0.08839677 -0.00000000       0.005
   0.08471357  0.08471357 -0.00000000       0.005
   0.08103038  0.08103038 -0.00000000       0.005
   0.07734718  0.07734718 -0.00000000       0.005
   0.07366398  0.07366398 -0.00000000       0.005
   0.06998078  0.06998078  0.00000000       0.005
   0.06629758  0.06629758 -0.00000000       0.005
   0.06261438  0.06261438 -0.00000000       0.005
   0.05893118  0.05893118 -0.00000000       0.005
   0.05524798  0.05524798 -0.00000000       0.005
   0.05156478  0.05156478  0.00000000       0.005
   0.04788159  0.04788159 -0.00000000       0.005
   0.04419839  0.04419839 -0.00000000       0.005
   0.04051519  0.04051519 -0.00000000       0.005
   0.03683199  0.03683199 -0.00000000       0.005
   0.03314879  0.03314879 -0.00000000       0.005
   0.02946559  0.02946559 -0.00000000       0.005
   0.02578239  0.02578239 -0.00000000       0.005
   0.02209919  0.02209919 -0.00000000       0.005
   0.01841599  0.01841599 -0.00000000       0.005
   0.01473280  0.01473280 -0.00000000       0.005
   0.01104960  0.01104960 -0.00000000       0.005
   0.00736640  0.00736640 -0.00000000       0.005
   0.00368320  0.00368320 -0.00000000       0.005
   0.00000000  0.00000000  0.00000000       0.005
   0.00000000  0.00000000  0.00000000       0.005
   0.00304478  0.00304478  0.00304478       0.005
   0.00608956  0.00608956  0.00608956       0.005
   0.00913433  0.00913433  0.00913433       0.005
   0.01217911  0.01217911  0.01217911       0.005
   0.01522389  0.01522389  0.01522389       0.005
   0.01826867  0.01826867  0.01826867       0.005
   0.02131344  0.02131344  0.02131344       0.005
   0.02435822  0.02435822  0.02435822       0.005
   0.02740300  0.02740300  0.02740300       0.005
   0.03044778  0.03044778  0.03044778       0.005
   0.03349256  0.03349256  0.03349256       0.005
   0.03653733  0.03653733  0.03653733       0.005
   0.03958211  0.03958211  0.03958211       0.005
   0.04262689  0.04262689  0.04262689       0.005
   0.04567167  0.04567167  0.04567167       0.005
   0.04871644  0.04871644  0.04871644       0.005
   0.05176122  0.05176122  0.05176122       0.005
   0.05480600  0.05480600  0.05480600       0.005
   0.05785078  0.05785078  0.05785078       0.005
   0.06089555  0.06089555  0.06089555       0.005
   0.06394033  0.06394033  0.06394033       0.005
   0.06698511  0.06698511  0.06698511       0.005
   0.07002989  0.07002989  0.07002989       0.005
   0.07307467  0.07307467  0.07307467       0.005
   0.07611944  0.07611944  0.07611944       0.005
   0.07611944  0.07611944  0.07611944       0.005
   0.07400501  0.08034830  0.07400501       0.005
   0.07189059  0.08457716  0.07189059       0.005
   0.06977616  0.08880602  0.06977616       0.005
   0.06766173  0.09303488  0.06766173       0.005
   0.06554730  0.09726373  0.06554730       0.005
   0.06343287  0.10149259  0.06343287       0.005
   0.06131844  0.10572145  0.06131844       0.005
   0.05920401  0.10995031  0.05920401       0.005
   0.05708958  0.11417916  0.05708958       0.005
   0.05497515  0.11840802  0.05497515       0.005
   0.05286072  0.12263688  0.05286072       0.005
   0.05074630  0.12686574  0.05074630       0.005
   0.04863187  0.13109460  0.04863187       0.005
   0.04651744  0.13532345  0.04651744       0.005
   0.04440301  0.13955231  0.04440301       0.005
   0.04228858  0.14378117  0.04228858       0.005
   0.04017415  0.14801003  0.04017415       0.005
   0.03805972  0.15223889  0.03805972       0.005
   0.03805972  0.15223889  0.03805972       0.005
   0.04151970  0.15223889  0.03459975       0.005
   0.04497967  0.15223889  0.03113977       0.005
   0.04843965  0.15223889  0.02767980       0.005
   0.05189962  0.15223889  0.02421982       0.005
   0.05535960  0.15223889  0.02075985       0.005
   0.05881957  0.15223889  0.01729987       0.005
   0.06227954  0.15223889  0.01383990       0.005
   0.06573952  0.15223889  0.01037992       0.005
   0.06919949  0.15223889  0.00691995       0.005
   0.07265947  0.15223889  0.00345997       0.005
   0.07611944  0.15223889  0.00000000       0.005
   0.07611944  0.15223889  0.00000000       0.005
   0.07611944  0.14861415  0.00362474       0.005
   0.07611944  0.14498942  0.00724947       0.005
   0.07611944  0.14136468  0.01087421       0.005
   0.07611944  0.13773994  0.01449894       0.005
   0.07611944  0.13411521  0.01812368       0.005
   0.07611944  0.13049047  0.02174841       0.005
   0.07611944  0.12686574  0.02537315       0.005
   0.07611944  0.12324100  0.02899788       0.005
   0.07611944  0.11961627  0.03262262       0.005
   0.07611944  0.11599153  0.03624735       0.005
   0.07611944  0.11236680  0.03987209       0.005
   0.07611944  0.10874206  0.04349682       0.005
   0.07611944  0.10511733  0.04712156       0.005
   0.07611944  0.10149259  0.05074630       0.005
   0.07611944  0.09786786  0.05437103       0.005
   0.07611944  0.09424312  0.05799577       0.005
   0.07611944  0.09061838  0.06162050       0.005
   0.07611944  0.08699365  0.06524524       0.005
   0.07611944  0.08336891  0.06886997       0.005
   0.07611944  0.07974418  0.07249471       0.005
   0.07611944  0.07611944  0.07611944       0.005
   0.07611944  0.07611944  0.07611944       0.005
   0.07823387  0.07823387  0.07189059       0.005
   0.08034830  0.08034830  0.06766173       0.005
   0.08246273  0.08246273  0.06343287       0.005
   0.08457716  0.08457716  0.05920401       0.005
   0.08669159  0.08669159  0.05497515       0.005
   0.08880602  0.08880602  0.05074630       0.005
   0.09092045  0.09092045  0.04651744       0.005
   0.09303488  0.09303488  0.04228858       0.005
   0.09514930  0.09514930  0.03805972       0.005
   0.09726373  0.09726373  0.03383086       0.005
   0.09937816  0.09937816  0.02960201       0.005
   0.10149259  0.10149259  0.02537315       0.005
   0.10360702  0.10360702  0.02114429       0.005
   0.10572145  0.10572145  0.01691543       0.005
   0.10783588  0.10783588  0.01268657       0.005
   0.10995031  0.10995031  0.00845772       0.005
   0.11206474  0.11206474  0.00422886       0.005
   0.11417916  0.11417916 -0.00000000       0.005
   0.03805972  0.15223889  0.03805972       0.005
   0.03459975  0.15223889  0.03459975       0.005
   0.03113977  0.15223889  0.03113977       0.005
   0.02767980  0.15223889  0.02767980       0.005
   0.02421982  0.15223889  0.02421982       0.005
   0.02075985  0.15223889  0.02075985       0.005
   0.01729987  0.15223889  0.01729987       0.005
   0.01383990  0.15223889  0.01383990       0.005
   0.01037992  0.15223889  0.01037992       0.005
   0.00691995  0.15223889  0.00691995       0.005
   0.00345997  0.15223889  0.00345997       0.005
   0.00000000  0.15223889  0.00000000       0.005

 k-points in reciprocal lattice and weights: Non SCF run along symmetry lines        
   0.00000000  0.00000000  0.00000000       0.005
   0.01724138  0.00000000  0.01724138       0.005
   0.03448276  0.00000000  0.03448276       0.005
   0.05172414  0.00000000  0.05172414       0.005
   0.06896552  0.00000000  0.06896552       0.005
   0.08620690  0.00000000  0.08620690       0.005
   0.10344828  0.00000000  0.10344828       0.005
   0.12068966  0.00000000  0.12068966       0.005
   0.13793103  0.00000000  0.13793103       0.005
   0.15517241 -0.00000000  0.15517241       0.005
   0.17241379  0.00000000  0.17241379       0.005
   0.18965517  0.00000000  0.18965517       0.005
   0.20689655  0.00000000  0.20689655       0.005
   0.22413793 -0.00000000  0.22413793       0.005
   0.24137931  0.00000000  0.24137931       0.005
   0.25862069 -0.00000000  0.25862069       0.005
   0.27586207  0.00000000  0.27586207       0.005
   0.29310345  0.00000000  0.29310345       0.005
   0.31034483 -0.00000000  0.31034483       0.005
   0.32758621  0.00000000  0.32758621       0.005
   0.34482759  0.00000000  0.34482759       0.005
   0.36206897  0.00000000  0.36206897       0.005
   0.37931034  0.00000000  0.37931034       0.005
   0.39655172  0.00000000  0.39655172       0.005
   0.41379310  0.00000000  0.41379310       0.005
   0.43103448  0.00000000  0.43103448       0.005
   0.44827586 -0.00000000  0.44827586       0.005
   0.46551724  0.00000000  0.46551724       0.005
   0.48275862  0.00000000  0.48275862       0.005
   0.50000000  0.00000000  0.50000000       0.005
   0.50000000  0.00000000  0.50000000       0.005
   0.50000000  0.01666667  0.51666667       0.005
   0.50000000  0.03333333  0.53333333       0.005
   0.50000000  0.05000000  0.55000000       0.005
   0.50000000  0.06666667  0.56666667       0.005
   0.50000000  0.08333333  0.58333333       0.005
   0.50000000  0.10000000  0.60000000       0.005
   0.50000000  0.11666667  0.61666667       0.005
   0.50000000  0.13333333  0.63333333       0.005
   0.50000000  0.15000000  0.65000000       0.005
   0.50000000  0.16666667  0.66666667       0.005
   0.50000000  0.18333333  0.68333333       0.005
   0.50000000  0.20000000  0.70000000       0.005
   0.50000000  0.21666667  0.71666667       0.005
   0.50000000  0.23333333  0.73333333       0.005
   0.50000000  0.25000000  0.75000000       0.005
   0.50000000  0.25000000  0.75000000       0.005
   0.48863636  0.26136364  0.75000000       0.005
   0.47727273  0.27272727  0.75000000       0.005
   0.46590909  0.28409091  0.75000000       0.005
   0.45454545  0.29545455  0.75000000       0.005
   0.44318182  0.30681818  0.75000000       0.005
   0.43181818  0.31818182  0.75000000       0.005
   0.42045455  0.32954545  0.75000000       0.005
   0.40909091  0.34090909  0.75000000       0.005
   0.39772727  0.35227273  0.75000000       0.005
   0.38636364  0.36363636  0.75000000       0.005
   0.37500000  0.37500000  0.75000000       0.005
   0.37500000  0.37500000  0.75000000       0.005
   0.36290323  0.36290323  0.72580645       0.005
   0.35080645  0.35080645  0.70161290       0.005
   0.33870968  0.33870968  0.67741935       0.005
   0.32661290  0.32661290  0.65322581       0.005
   0.31451613  0.31451613  0.62903226       0.005
   0.30241935  0.30241935  0.60483871       0.005
   0.29032258  0.29032258  0.58064516       0.005
   0.27822581  0.27822581  0.55645161       0.005
   0.26612903  0.26612903  0.53225806       0.005
   0.25403226  0.25403226  0.50806452       0.005
   0.24193548  0.24193548  0.48387097       0.005
   0.22983871  0.22983871  0.45967742       0.005
   0.21774194  0.21774194  0.43548387       0.005
   0.20564516  0.20564516  0.41129032       0.005
   0.19354839  0.19354839  0.38709677       0.005
   0.18145161  0.18145161  0.36290323       0.005
   0.16935484  0.16935484  0.33870968       0.005
   0.15725806  0.15725806  0.31451613       0.005
   0.14516129  0.14516129  0.29032258       0.005
   0.13306452  0.13306452  0.26612903       0.005
   0.12096774  0.12096774  0.24193548       0.005
   0.10887097  0.10887097  0.21774194       0.005
   0.09677419  0.09677419  0.19354839       0.005
   0.08467742  0.08467742  0.16935484       0.005
   0.07258065  0.07258065  0.14516129       0.005
   0.06048387  0.06048387  0.12096774       0.005
   0.04838710  0.04838710  0.09677419       0.005
   0.03629032  0.03629032  0.07258065       0.005
   0.02419355  0.02419355  0.04838710       0.005
   0.01209677  0.01209677  0.02419355       0.005
   0.00000000  0.00000000  0.00000000       0.005
   0.00000000  0.00000000  0.00000000       0.005
   0.02000000  0.02000000  0.02000000       0.005
   0.04000000  0.04000000  0.04000000       0.005
   0.06000000  0.06000000  0.06000000       0.005
   0.08000000  0.08000000  0.08000000       0.005
   0.10000000  0.10000000  0.10000000       0.005
   0.12000000  0.12000000  0.12000000       0.005
   0.14000000  0.14000000  0.14000000       0.005
   0.16000000  0.16000000  0.16000000       0.005
   0.18000000  0.18000000  0.18000000       0.005
   0.20000000  0.20000000  0.20000000       0.005
   0.22000000  0.22000000  0.22000000       0.005
   0.24000000  0.24000000  0.24000000       0.005
   0.26000000  0.26000000  0.26000000       0.005
   0.28000000  0.28000000  0.28000000       0.005
   0.30000000  0.30000000  0.30000000       0.005
   0.32000000  0.32000000  0.32000000       0.005
   0.34000000  0.34000000  0.34000000       0.005
   0.36000000  0.36000000  0.36000000       0.005
   0.38000000  0.38000000  0.38000000       0.005
   0.40000000  0.40000000  0.40000000       0.005
   0.42000000  0.42000000  0.42000000       0.005
   0.44000000  0.44000000  0.44000000       0.005
   0.46000000  0.46000000  0.46000000       0.005
   0.48000000  0.48000000  0.48000000       0.005
   0.50000000  0.50000000  0.50000000       0.005
   0.50000000  0.50000000  0.50000000       0.005
   0.50694444  0.48611111  0.50694444       0.005
   0.51388889  0.47222222  0.51388889       0.005
   0.52083333  0.45833333  0.52083333       0.005
   0.52777778  0.44444444  0.52777778       0.005
   0.53472222  0.43055556  0.53472222       0.005
   0.54166667  0.41666667  0.54166667       0.005
   0.54861111  0.40277778  0.54861111       0.005
   0.55555556  0.38888889  0.55555556       0.005
   0.56250000  0.37500000  0.56250000       0.005
   0.56944444  0.36111111  0.56944444       0.005
   0.57638889  0.34722222  0.57638889       0.005
   0.58333333  0.33333333  0.58333333       0.005
   0.59027778  0.31944444  0.59027778       0.005
   0.59722222  0.30555556  0.59722222       0.005
   0.60416667  0.29166667  0.60416667       0.005
   0.61111111  0.27777778  0.61111111       0.005
   0.61805556  0.26388889  0.61805556       0.005
   0.62500000  0.25000000  0.62500000       0.005
   0.62500000  0.25000000  0.62500000       0.005
   0.61363636  0.25000000  0.63636364       0.005
   0.60227273  0.25000000  0.64772727       0.005
   0.59090909  0.25000000  0.65909091       0.005
   0.57954545  0.25000000  0.67045455       0.005
   0.56818182  0.25000000  0.68181818       0.005
   0.55681818  0.25000000  0.69318182       0.005
   0.54545455  0.25000000  0.70454545       0.005
   0.53409091  0.25000000  0.71590909       0.005
   0.52272727  0.25000000  0.72727273       0.005
   0.51136364  0.25000000  0.73863636       0.005
   0.50000000  0.25000000  0.75000000       0.005
   0.50000000  0.25000000  0.75000000       0.005
   0.50000000  0.26190476  0.73809524       0.005
   0.50000000  0.27380952  0.72619048       0.005
   0.50000000  0.28571429  0.71428571       0.005
   0.50000000  0.29761905  0.70238095       0.005
   0.50000000  0.30952381  0.69047619       0.005
   0.50000000  0.32142857  0.67857143       0.005
   0.50000000  0.33333333  0.66666667       0.005
   0.50000000  0.34523810  0.65476190       0.005
   0.50000000  0.35714286  0.64285714       0.005
   0.50000000  0.36904762  0.63095238       0.005
   0.50000000  0.38095238  0.61904762       0.005
   0.50000000  0.39285714  0.60714286       0.005
   0.50000000  0.40476190  0.59523810       0.005
   0.50000000  0.41666667  0.58333333       0.005
   0.50000000  0.42857143  0.57142857       0.005
   0.50000000  0.44047619  0.55952381       0.005
   0.50000000  0.45238095  0.54761905       0.005
   0.50000000  0.46428571  0.53571429       0.005
   0.50000000  0.47619048  0.52380952       0.005
   0.50000000  0.48809524  0.51190476       0.005
   0.50000000  0.50000000  0.50000000       0.005
   0.50000000  0.50000000  0.50000000       0.005
   0.49305556  0.49305556  0.51388889       0.005
   0.48611111  0.48611111  0.52777778       0.005
   0.47916667  0.47916667  0.54166667       0.005
   0.47222222  0.47222222  0.55555556       0.005
   0.46527778  0.46527778  0.56944444       0.005
   0.45833333  0.45833333  0.58333333       0.005
   0.45138889  0.45138889  0.59722222       0.005
   0.44444444  0.44444444  0.61111111       0.005
   0.43750000  0.43750000  0.62500000       0.005
   0.43055556  0.43055556  0.63888889       0.005
   0.42361111  0.42361111  0.65277778       0.005
   0.41666667  0.41666667  0.66666667       0.005
   0.40972222  0.40972222  0.68055556       0.005
   0.40277778  0.40277778  0.69444444       0.005
   0.39583333  0.39583333  0.70833333       0.005
   0.38888889  0.38888889  0.72222222       0.005
   0.38194444  0.38194444  0.73611111       0.005
   0.37500000  0.37500000  0.75000000       0.005
   0.62500000  0.25000000  0.62500000       0.005
   0.61363636  0.22727273  0.61363636       0.005
   0.60227273  0.20454545  0.60227273       0.005
   0.59090909  0.18181818  0.59090909       0.005
   0.57954545  0.15909091  0.57954545       0.005
   0.56818182  0.13636364  0.56818182       0.005
   0.55681818  0.11363636  0.55681818       0.005
   0.54545455  0.09090909  0.54545455       0.005
   0.53409091  0.06818182  0.53409091       0.005
   0.52272727  0.04545455  0.52272727       0.005
   0.51136364  0.02272727  0.51136364       0.005
   0.50000000  0.00000000  0.50000000       0.005

 position of ions in fractional coordinates (direct lattice) 
   0.00000000  0.00000000  0.00000000
   0.50000000  0.50000000  0.50000000

 position of ions in cartesian coordinates  (Angst):
   0.00000000  0.00000000  0.00000000
   3.28431199  3.28431199  3.28431199

 Euler angles ALPHA=     0.0000000  BETA=     0.0000000

 transformation matrix from SAXIS to cartesian coordinates
 ---------------------------------------------------------
     1.0000000 m_x    -0.0000000 m_y     0.0000000 m_z
     0.0000000 m_x     1.0000000 m_y     0.0000000 m_z
    -0.0000000 m_x     0.0000000 m_y     1.0000000 m_z

 transformation matrix from cartesian coordinates to SAXIS
 ---------------------------------------------------------
     1.0000000 m_x     0.0000000 m_y    -0.0000000 m_z
    -0.0000000 m_x     1.0000000 m_y     0.0000000 m_z
     0.0000000 m_x     0.0000000 m_y     1.0000000 m_z




--------------------------------------------------------------------------------------------------------


 k-point  1 :   0.0000 0.0000 0.0000  plane waves:    4842
 k-point  2 :   0.0172 0.0000 0.0172  plane waves:    4818
 k-point  3 :   0.0345 0.0000 0.0345  plane waves:    4770
 k-point  4 :   0.0517 0.0000 0.0517  plane waves:    4754
 k-point  5 :   0.0690 0.0000 0.0690  plane waves:    4738
 k-point  6 :   0.0862 0.0000 0.0862  plane waves:    4746
 k-point  7 :   0.1034 0.0000 0.1034  plane waves:    4722
 k-point  8 :   0.1207 0.0000 0.1207  plane waves:    4722
 k-point  9 :   0.1379 0.0000 0.1379  plane waves:    4722
 k-point 10 :   0.1552-0.0000 0.1552  plane waves:    4722
 k-point 11 :   0.1724 0.0000 0.1724  plane waves:    4730
 k-point 12 :   0.1897 0.0000 0.1897  plane waves:    4730
 k-point 13 :   0.2069 0.0000 0.2069  plane waves:    4746
 k-point 14 :   0.2241-0.0000 0.2241  plane waves:    4746
 k-point 15 :   0.2414 0.0000 0.2414  plane waves:    4714
 k-point 16 :   0.2586-0.0000 0.2586  plane waves:    4730
 k-point 17 :   0.2759 0.0000 0.2759  plane waves:    4746
 k-point 18 :   0.2931 0.0000 0.2931  plane waves:    4754
 k-point 19 :   0.3103-0.0000 0.3103  plane waves:    4754
 k-point 20 :   0.3276 0.0000 0.3276  plane waves:    4746
 k-point 21 :   0.3448 0.0000 0.3448  plane waves:    4746
 k-point 22 :   0.3621 0.0000 0.3621  plane waves:    4754
 k-point 23 :   0.3793 0.0000 0.3793  plane waves:    4738
 k-point 24 :   0.3966 0.0000 0.3966  plane waves:    4738
 k-point 25 :   0.4138 0.0000 0.4138  plane waves:    4730
 k-point 26 :   0.4310 0.0000 0.4310  plane waves:    4714
 k-point 27 :   0.4483-0.0000 0.4483  plane waves:    4732
 k-point 28 :   0.4655 0.0000 0.4655  plane waves:    4716
 k-point 29 :   0.4828 0.0000 0.4828  plane waves:    4700
 k-point 30 :   0.5000 0.0000 0.5000  plane waves:    4692
 k-point 31 :   0.5000 0.0000 0.5000  plane waves:    4692
 k-point 32 :   0.5000 0.0167 0.5167  plane waves:    4692
 k-point 33 :   0.5000 0.0333 0.5333  plane waves:    4716
 k-point 34 :   0.5000 0.0500 0.5500  plane waves:    4732
 k-point 35 :   0.5000 0.0667 0.5667  plane waves:    4720
 k-point 36 :   0.5000 0.0833 0.5833  plane waves:    4732
 k-point 37 :   0.5000 0.1000 0.6000  plane waves:    4740
 k-point 38 :   0.5000 0.1167 0.6167  plane waves:    4728
 k-point 39 :   0.5000 0.1333 0.6333  plane waves:    4740
 k-point 40 :   0.5000 0.1500 0.6500  plane waves:    4732
 k-point 41 :   0.5000 0.1667 0.6667  plane waves:    4748
 k-point 42 :   0.5000 0.1833 0.6833  plane waves:    4716
 k-point 43 :   0.5000 0.2000 0.7000  plane waves:    4724
 k-point 44 :   0.5000 0.2167 0.7167  plane waves:    4708
 k-point 45 :   0.5000 0.2333 0.7333  plane waves:    4704
 k-point 46 :   0.5000 0.2500 0.7500  plane waves:    4704
 k-point 47 :   0.5000 0.2500 0.7500  plane waves:    4704
 k-point 48 :   0.4886 0.2614 0.7500  plane waves:    4704
 k-point 49 :   0.4773 0.2727 0.7500  plane waves:    4710
 k-point 50 :   0.4659 0.2841 0.7500  plane waves:    4718
 k-point 51 :   0.4545 0.2955 0.7500  plane waves:    4718
 k-point 52 :   0.4432 0.3068 0.7500  plane waves:    4728
 k-point 53 :   0.4318 0.3182 0.7500  plane waves:    4716
 k-point 54 :   0.4205 0.3295 0.7500  plane waves:    4708
 k-point 55 :   0.4091 0.3409 0.7500  plane waves:    4712
 k-point 56 :   0.3977 0.3523 0.7500  plane waves:    4704
 k-point 57 :   0.3864 0.3636 0.7500  plane waves:    4694
 k-point 58 :   0.3750 0.3750 0.7500  plane waves:    4660
 k-point 59 :   0.3750 0.3750 0.7500  plane waves:    4660
 k-point 60 :   0.3629 0.3629 0.7258  plane waves:    4700
 k-point 61 :   0.3508 0.3508 0.7016  plane waves:    4698
 k-point 62 :   0.3387 0.3387 0.6774  plane waves:    4710
 k-point 63 :   0.3266 0.3266 0.6532  plane waves:    4702
 k-point 64 :   0.3145 0.3145 0.6290  plane waves:    4690
 k-point 65 :   0.3024 0.3024 0.6048  plane waves:    4706
 k-point 66 :   0.2903 0.2903 0.5806  plane waves:    4722
 k-point 67 :   0.2782 0.2782 0.5565  plane waves:    4722
 k-point 68 :   0.2661 0.2661 0.5323  plane waves:    4722
 k-point 69 :   0.2540 0.2540 0.5081  plane waves:    4738
 k-point 70 :   0.2419 0.2419 0.4839  plane waves:    4746
 k-point 71 :   0.2298 0.2298 0.4597  plane waves:    4754
 k-point 72 :   0.2177 0.2177 0.4355  plane waves:    4746
 k-point 73 :   0.2056 0.2056 0.4113  plane waves:    4742
 k-point 74 :   0.1935 0.1935 0.3871  plane waves:    4758
 k-point 75 :   0.1815 0.1815 0.3629  plane waves:    4762
 k-point 76 :   0.1694 0.1694 0.3387  plane waves:    4746
 k-point 77 :   0.1573 0.1573 0.3145  plane waves:    4730
 k-point 78 :   0.1452 0.1452 0.2903  plane waves:    4722
 k-point 79 :   0.1331 0.1331 0.2661  plane waves:    4730
 k-point 80 :   0.1210 0.1210 0.2419  plane waves:    4726
 k-point 81 :   0.1089 0.1089 0.2177  plane waves:    4710
 k-point 82 :   0.0968 0.0968 0.1935  plane waves:    4718
 k-point 83 :   0.0847 0.0847 0.1694  plane waves:    4710
 k-point 84 :   0.0726 0.0726 0.1452  plane waves:    4718
 k-point 85 :   0.0605 0.0605 0.1210  plane waves:    4718
 k-point 86 :   0.0484 0.0484 0.0968  plane waves:    4726
 k-point 87 :   0.0363 0.0363 0.0726  plane waves:    4750
 k-point 88 :   0.0242 0.0242 0.0484  plane waves:    4770
 k-point 89 :   0.0121 0.0121 0.0242  plane waves:    4822
 k-point 90 :   0.0000 0.0000 0.0000  plane waves:    4842
 k-point 91 :   0.0000 0.0000 0.0000  plane waves:    4842
 k-point 92 :   0.0200 0.0200 0.0200  plane waves:    4824
 k-point 93 :   0.0400 0.0400 0.0400  plane waves:    4770
 k-point 94 :   0.0600 0.0600 0.0600  plane waves:    4740
 k-point 95 :   0.0800 0.0800 0.0800  plane waves:    4740
 k-point 96 :   0.1000 0.1000 0.1000  plane waves:    4746
 k-point 97 :   0.1200 0.1200 0.1200  plane waves:    4722
 k-point 98 :   0.1400 0.1400 0.1400  plane waves:    4710
 k-point 99 :   0.1600 0.1600 0.1600  plane waves:    4716
 k-point ** :   0.1800 0.1800 0.1800  plane waves:    4716
 k-point ** :   0.2000 0.2000 0.2000  plane waves:    4722
 k-point ** :   0.2200 0.2200 0.2200  plane waves:    4734
 k-point ** :   0.2400 0.2400 0.2400  plane waves:    4740
 k-point ** :   0.2600 0.2600 0.2600  plane waves:    4740
 k-point ** :   0.2800 0.2800 0.2800  plane waves:    4734
 k-point ** :   0.3000 0.3000 0.3000  plane waves:    4734
 k-point ** :   0.3200 0.3200 0.3200  plane waves:    4746
 k-point ** :   0.3400 0.3400 0.3400  plane waves:    4764
 k-point ** :   0.3600 0.3600 0.3600  plane waves:    4764
 k-point ** :   0.3800 0.3800 0.3800  plane waves:    4746
 k-point ** :   0.4000 0.4000 0.4000  plane waves:    4728
 k-point ** :   0.4200 0.4200 0.4200  plane waves:    4758
 k-point ** :   0.4400 0.4400 0.4400  plane waves:    4748
 k-point ** :   0.4600 0.4600 0.4600  plane waves:    4736
 k-point ** :   0.4800 0.4800 0.4800  plane waves:    4736
 k-point ** :   0.5000 0.5000 0.5000  plane waves:    4724
 k-point ** :   0.5000 0.5000 0.5000  plane waves:    4724
 k-point ** :   0.5069 0.4861 0.5069  plane waves:    4734
 k-point ** :   0.5139 0.4722 0.5139  plane waves:    4728
 k-point ** :   0.5208 0.4583 0.5208  plane waves:    4730
 k-point ** :   0.5278 0.4444 0.5278  plane waves:    4748
 k-point ** :   0.5347 0.4306 0.5347  plane waves:    4732
 k-point ** :   0.5417 0.4167 0.5417  plane waves:    4710
 k-point ** :   0.5486 0.4028 0.5486  plane waves:    4726
 k-point ** :   0.5556 0.3889 0.5556  plane waves:    4722
 k-point ** :   0.5625 0.3750 0.5625  plane waves:    4726
 k-point ** :   0.5694 0.3611 0.5694  plane waves:    4732
 k-point ** :   0.5764 0.3472 0.5764  plane waves:    4716
 k-point ** :   0.5833 0.3333 0.5833  plane waves:    4708
 k-point ** :   0.5903 0.3194 0.5903  plane waves:    4712
 k-point ** :   0.5972 0.3056 0.5972  plane waves:    4718
 k-point ** :   0.6042 0.2917 0.6042  plane waves:    4706
 k-point ** :   0.6111 0.2778 0.6111  plane waves:    4694
 k-point ** :   0.6181 0.2639 0.6181  plane waves:    4692
 k-point ** :   0.6250 0.2500 0.6250  plane waves:    4660
 k-point ** :   0.6250 0.2500 0.6250  plane waves:    4660
 k-point ** :   0.6136 0.2500 0.6364  plane waves:    4694
 k-point ** :   0.6023 0.2500 0.6477  plane waves:    4704
 k-point ** :   0.5909 0.2500 0.6591  plane waves:    4712
 k-point ** :   0.5795 0.2500 0.6705  plane waves:    4708
 k-point ** :   0.5682 0.2500 0.6818  plane waves:    4716
 k-point ** :   0.5568 0.2500 0.6932  plane waves:    4728
 k-point ** :   0.5455 0.2500 0.7045  plane waves:    4718
 k-point ** :   0.5341 0.2500 0.7159  plane waves:    4718
 k-point ** :   0.5227 0.2500 0.7273  plane waves:    4710
 k-point ** :   0.5114 0.2500 0.7386  plane waves:    4704
 k-point ** :   0.5000 0.2500 0.7500  plane waves:    4704
 k-point ** :   0.5000 0.2500 0.7500  plane waves:    4704
 k-point ** :   0.5000 0.2619 0.7381  plane waves:    4704
 k-point ** :   0.5000 0.2738 0.7262  plane waves:    4704
 k-point ** :   0.5000 0.2857 0.7143  plane waves:    4716
 k-point ** :   0.5000 0.2976 0.7024  plane waves:    4708
 k-point ** :   0.5000 0.3095 0.6905  plane waves:    4708
 k-point ** :   0.5000 0.3214 0.6786  plane waves:    4720
 k-point ** :   0.5000 0.3333 0.6667  plane waves:    4732
 k-point ** :   0.5000 0.3452 0.6548  plane waves:    4732
 k-point ** :   0.5000 0.3571 0.6429  plane waves:    4732
 k-point ** :   0.5000 0.3690 0.6310  plane waves:    4740
 k-point ** :   0.5000 0.3810 0.6190  plane waves:    4744
 k-point ** :   0.5000 0.3929 0.6071  plane waves:    4732
 k-point ** :   0.5000 0.4048 0.5952  plane waves:    4736
 k-point ** :   0.5000 0.4167 0.5833  plane waves:    4728
 k-point ** :   0.5000 0.4286 0.5714  plane waves:    4736
 k-point ** :   0.5000 0.4405 0.5595  plane waves:    4744
 k-point ** :   0.5000 0.4524 0.5476  plane waves:    4740
 k-point ** :   0.5000 0.4643 0.5357  plane waves:    4724
 k-point ** :   0.5000 0.4762 0.5238  plane waves:    4728
 k-point ** :   0.5000 0.4881 0.5119  plane waves:    4732
 k-point ** :   0.5000 0.5000 0.5000  plane waves:    4724
 k-point ** :   0.5000 0.5000 0.5000  plane waves:    4724
 k-point ** :   0.4931 0.4931 0.5139  plane waves:    4734
 k-point ** :   0.4861 0.4861 0.5278  plane waves:    4728
 k-point ** :   0.4792 0.4792 0.5417  plane waves:    4730
 k-point ** :   0.4722 0.4722 0.5556  plane waves:    4748
 k-point ** :   0.4653 0.4653 0.5694  plane waves:    4732
 k-point ** :   0.4583 0.4583 0.5833  plane waves:    4710
 k-point ** :   0.4514 0.4514 0.5972  plane waves:    4726
 k-point ** :   0.4444 0.4444 0.6111  plane waves:    4722
 k-point ** :   0.4375 0.4375 0.6250  plane waves:    4726
 k-point ** :   0.4306 0.4306 0.6389  plane waves:    4732
 k-point ** :   0.4236 0.4236 0.6528  plane waves:    4716
 k-point ** :   0.4167 0.4167 0.6667  plane waves:    4708
 k-point ** :   0.4097 0.4097 0.6806  plane waves:    4712
 k-point ** :   0.4028 0.4028 0.6944  plane waves:    4718
 k-point ** :   0.3958 0.3958 0.7083  plane waves:    4706
 k-point ** :   0.3889 0.3889 0.7222  plane waves:    4694
 k-point ** :   0.3819 0.3819 0.7361  plane waves:    4692
 k-point ** :   0.3750 0.3750 0.7500  plane waves:    4660
 k-point ** :   0.6250 0.2500 0.6250  plane waves:    4660
 k-point ** :   0.6136 0.2273 0.6136  plane waves:    4688
 k-point ** :   0.6023 0.2045 0.6023  plane waves:    4696
 k-point ** :   0.5909 0.1818 0.5909  plane waves:    4716
 k-point ** :   0.5795 0.1591 0.5795  plane waves:    4724
 k-point ** :   0.5682 0.1364 0.5682  plane waves:    4720
 k-point ** :   0.5568 0.1136 0.5568  plane waves:    4728
 k-point ** :   0.5455 0.0909 0.5455  plane waves:    4736
 k-point ** :   0.5341 0.0682 0.5341  plane waves:    4736
 k-point ** :   0.5227 0.0455 0.5227  plane waves:    4724
 k-point ** :   0.5114 0.0227 0.5114  plane waves:    4692
 k-point ** :   0.5000 0.0000 0.5000  plane waves:    4692

 maximum and minimum number of plane-waves per node :      2422     2322

 maximum number of plane-waves:      4842
 maximum index in each direction: 
   IXMAX=    9   IYMAX=    9   IZMAX=    9
   IXMIN=   -9   IYMIN=   -9   IZMIN=  -10


 parallel 3D FFT for wavefunctions:
    minimum data exchange during FFTs selected (reduces bandwidth)
 parallel 3D FFT for charge:
    minimum data exchange during FFTs selected (reduces bandwidth)


 total amount of memory used by VASP MPI-rank0   493871. kBytes
=======================================================================

   base      :      30000. kBytes
   nonl-proj :      69849. kBytes
   fftplans  :      19688. kBytes
   grid      :      19456. kBytes
   one-center:         62. kBytes
   wavefun   :     354816. kBytes

     INWAV:  cpu time    0.0000: real time    0.0001
 initial charge density was supplied:
 number of electron      20.0000002 magnetization       0.0000029      0.0000029      0.0000029
 keeping initial charge density in first step


--------------------------------------------------------------------------------------------------------


 Maximum index for augmentation-charges        51011 (set IRDMAX)


--------------------------------------------------------------------------------------------------------


 First call to EWALD:  gamma=   0.428
 Maximum number of real-space cells 3x 3x 3
 Maximum number of reciprocal cells 3x 3x 3

    FEWALD:  cpu time    0.0009: real time    0.0009


--------------------------------------- Iteration      1(   1)  ---------------------------------------


    POTLOK:  cpu time    0.2774: real time    0.2775
    SETDIJ:  cpu time    0.4795: real time    0.4799
    TRIAL :  cpu time   39.7062: real time   41.1302
    CORREC:  cpu time    0.0043: real time    0.0043
    --------------------------------------------
      LOOP:  cpu time   40.5751: real time   42.0790

 eigenvalue-minimisations  : 24076
 total energy-change (2. order) : 0.2159301E+03  (-0.1018028E+04)
 number of electron      20.0000002 magnetization       0.0000029      0.0000029      0.0000029
 augmentation part       20.0000002 magnetization       0.0000029      0.0000029      0.0000029

 Free energy of the ion-electron system (eV)
  ---------------------------------------------------
  alpha Z        PSCENC =        34.30176334
  Ewald energy   TEWEN  =     -1366.58178547
  -Hartree energ DENC   =      -513.40574798
  -exchange      EXHF   =         0.00000000
  -V(xc)+E(xc)   XCENC  =         9.71753223
  PAW double counting   =      1878.37875726    -1823.09045373
  entropy T*S    EENTRO =        -0.00003847
  eigenvalues    EBANDS =       111.72131656
  atomic energy  EATOM  =      1884.88874340
  ---------------------------------------------------
  free energy    TOTEN  =       215.93008713 eV

  energy without entropy =      215.93012560  energy(sigma->0) =      215.93010637


--------------------------------------------------------------------------------------------------------




--------------------------------------- Iteration      1(   2)  ---------------------------------------


    TRIAL :  cpu time   39.5960: real time   40.3499
    CORREC:  cpu time    0.0042: real time    0.0042
    --------------------------------------------
      LOOP:  cpu time   39.6004: real time   40.3544

 eigenvalue-minimisations  : 24168
 total energy-change (2. order) :-0.1949442E+03  (-0.1780236E+03)
 number of electron      20.0000002 magnetization       0.0000029      0.0000029      0.0000029
 augmentation part       20.0000002 magnetization       0.0000029      0.0000029      0.0000029

 Free energy of the ion-electron system (eV)
  ---------------------------------------------------
  alpha Z        PSCENC =        34.30176334
  Ewald energy   TEWEN  =     -1366.58178547
  -Hartree energ DENC   =      -513.40574798
  -exchange      EXHF   =         0.00000000
  -V(xc)+E(xc)   XCENC  =         9.71753223
  PAW double counting   =      1878.37875726    -1823.09045373
  entropy T*S    EENTRO =        -0.00000438
  eigenvalues    EBANDS =       -83.22292898
  atomic energy  EATOM  =      1884.88874340
  ---------------------------------------------------
  free energy    TOTEN  =        20.98587569 eV

  energy without entropy =       20.98588006  energy(sigma->0) =       20.98587788


--------------------------------------------------------------------------------------------------------




--------------------------------------- Iteration      1(   3)  ---------------------------------------


    TRIAL :  cpu time   42.7363: real time   43.2701
    CORREC:  cpu time    0.0037: real time    0.0037
    --------------------------------------------
      LOOP:  cpu time   42.7403: real time   43.2740

 eigenvalue-minimisations  : 27188
 total energy-change (2. order) :-0.2749025E+02  (-0.2650514E+02)
 number of electron      20.0000002 magnetization       0.0000029      0.0000029      0.0000029
 augmentation part       20.0000002 magnetization       0.0000029      0.0000029      0.0000029

 Free energy of the ion-electron system (eV)
  ---------------------------------------------------
  alpha Z        PSCENC =        34.30176334
  Ewald energy   TEWEN  =     -1366.58178547
  -Hartree energ DENC   =      -513.40574798
  -exchange      EXHF   =         0.00000000
  -V(xc)+E(xc)   XCENC  =         9.71753223
  PAW double counting   =      1878.37875726    -1823.09045373
  entropy T*S    EENTRO =        -0.00000058
  eigenvalues    EBANDS =      -110.71318203
  atomic energy  EATOM  =      1884.88874340
  ---------------------------------------------------
  free energy    TOTEN  =        -6.50437357 eV

  energy without entropy =       -6.50437299  energy(sigma->0) =       -6.50437328


--------------------------------------------------------------------------------------------------------




--------------------------------------- Iteration      1(   4)  ---------------------------------------


    TRIAL :  cpu time   46.2485: real time   47.1038
    CORREC:  cpu time    0.0014: real time    0.0014
    --------------------------------------------
      LOOP:  cpu time   46.2509: real time   47.1060

 eigenvalue-minimisations  : 30656
 total energy-change (2. order) :-0.1381590E+01  (-0.1376247E+01)
 number of electron      20.0000002 magnetization       0.0000029      0.0000029      0.0000029
 augmentation part       20.0000002 magnetization       0.0000029      0.0000029      0.0000029

 Free energy of the ion-electron system (eV)
  ---------------------------------------------------
  alpha Z        PSCENC =        34.30176334
  Ewald energy   TEWEN  =     -1366.58178547
  -Hartree energ DENC   =      -513.40574798
  -exchange      EXHF   =         0.00000000
  -V(xc)+E(xc)   XCENC  =         9.71753223
  PAW double counting   =      1878.37875726    -1823.09045373
  entropy T*S    EENTRO =        -0.00000000
  eigenvalues    EBANDS =      -112.09477213
  atomic energy  EATOM  =      1884.88874340
  ---------------------------------------------------
  free energy    TOTEN  =        -7.88596309 eV

  energy without entropy =       -7.88596309  energy(sigma->0) =       -7.88596309


--------------------------------------------------------------------------------------------------------




--------------------------------------- Iteration      1(   5)  ---------------------------------------


    TRIAL :  cpu time   50.6547: real time   51.0809
    CORREC:  cpu time    0.0015: real time    0.0015
    --------------------------------------------
      LOOP:  cpu time   50.6564: real time   51.0826

 eigenvalue-minimisations  : 34952
 total energy-change (2. order) :-0.5789200E-01  (-0.5787829E-01)
 number of electron      20.0000002 magnetization       0.0000029      0.0000029      0.0000029
 augmentation part       20.0000002 magnetization       0.0000029      0.0000029      0.0000029

 Free energy of the ion-electron system (eV)
  ---------------------------------------------------
  alpha Z        PSCENC =        34.30176334
  Ewald energy   TEWEN  =     -1366.58178547
  -Hartree energ DENC   =      -513.40574798
  -exchange      EXHF   =         0.00000000
  -V(xc)+E(xc)   XCENC  =         9.71753223
  PAW double counting   =      1878.37875726    -1823.09045373
  entropy T*S    EENTRO =        -0.00000000
  eigenvalues    EBANDS =      -112.15266413
  atomic energy  EATOM  =      1884.88874340
  ---------------------------------------------------
  free energy    TOTEN  =        -7.94385509 eV

  energy without entropy =       -7.94385509  energy(sigma->0) =       -7.94385509


--------------------------------------------------------------------------------------------------------




--------------------------------------- Iteration      1(   6)  ---------------------------------------


    TRIAL :  cpu time   25.3062: real time   25.3228
    CORREC:  cpu time    5.5671: real time    5.7708
    --------------------------------------------
      LOOP:  cpu time   30.8744: real time   31.0938

 eigenvalue-minimisations  :     0
 total energy-change (2. order) :-0.4547474E-11  (-0.6763478E-03)
 number of electron      20.0000002 magnetization       0.0000029      0.0000029      0.0000029
 augmentation part       20.0000002 magnetization       0.0000029      0.0000029      0.0000029

 Free energy of the ion-electron system (eV)
  ---------------------------------------------------
  alpha Z        PSCENC =        34.30176334
  Ewald energy   TEWEN  =     -1366.58178547
  -Hartree energ DENC   =      -513.40574798
  -exchange      EXHF   =         0.00000000
  -V(xc)+E(xc)   XCENC  =         9.71753223
  PAW double counting   =      1878.37875726    -1823.09045373
  entropy T*S    EENTRO =        -0.00000000
  eigenvalues    EBANDS =      -112.15266413
  atomic energy  EATOM  =      1884.88874340
  ---------------------------------------------------
  free energy    TOTEN  =        -7.94385509 eV

  energy without entropy =       -7.94385509  energy(sigma->0) =       -7.94385509


--------------------------------------------------------------------------------------------------------




--------------------------------------- Iteration      1(   7)  ---------------------------------------


    TRIAL :  cpu time   25.2529: real time   25.3571
    CORREC:  cpu time    5.5593: real time    5.7115
    --------------------------------------------
      LOOP:  cpu time   30.8125: real time   31.0690

 eigenvalue-minimisations  :     0
 total energy-change (2. order) :-0.6763476E-03  (-0.2195897E-03)
 number of electron      20.0000002 magnetization       0.0000029      0.0000029      0.0000029
 augmentation part       20.0000002 magnetization       0.0000029      0.0000029      0.0000029

 Free energy of the ion-electron system (eV)
  ---------------------------------------------------
  alpha Z        PSCENC =        34.30176334
  Ewald energy   TEWEN  =     -1366.58178547
  -Hartree energ DENC   =      -513.40574798
  -exchange      EXHF   =         0.00000000
  -V(xc)+E(xc)   XCENC  =         9.71753223
  PAW double counting   =      1878.37875726    -1823.09045373
  entropy T*S    EENTRO =        -0.00000000
  eigenvalues    EBANDS =      -112.15334048
  atomic energy  EATOM  =      1884.88874340
  ---------------------------------------------------
  free energy    TOTEN  =        -7.94453144 eV

  energy without entropy =       -7.94453144  energy(sigma->0) =       -7.94453144


--------------------------------------------------------------------------------------------------------




--------------------------------------- Iteration      1(   8)  ---------------------------------------


    TRIAL :  cpu time   24.9777: real time   25.0255
    CORREC:  cpu time    5.7620: real time    6.4929
    --------------------------------------------
      LOOP:  cpu time   30.7399: real time   31.5187

 eigenvalue-minimisations  :     0
 total energy-change (2. order) :-0.2195852E-03  (-0.7254904E-04)
 number of electron      20.0000002 magnetization       0.0000029      0.0000029      0.0000029
 augmentation part       20.0000002 magnetization       0.0000029      0.0000029      0.0000029

 Free energy of the ion-electron system (eV)
  ---------------------------------------------------
  alpha Z        PSCENC =        34.30176334
  Ewald energy   TEWEN  =     -1366.58178547
  -Hartree energ DENC   =      -513.40574798
  -exchange      EXHF   =         0.00000000
  -V(xc)+E(xc)   XCENC  =         9.71753223
  PAW double counting   =      1878.37875726    -1823.09045373
  entropy T*S    EENTRO =        -0.00000000
  eigenvalues    EBANDS =      -112.15356007
  atomic energy  EATOM  =      1884.88874340
  ---------------------------------------------------
  free energy    TOTEN  =        -7.94475103 eV

  energy without entropy =       -7.94475103  energy(sigma->0) =       -7.94475103


--------------------------------------------------------------------------------------------------------




--------------------------------------- Iteration      1(   9)  ---------------------------------------


    TRIAL :  cpu time   40.0075: real time   43.5168
    CORREC:  cpu time    7.1177: real time    7.6784
    --------------------------------------------
      LOOP:  cpu time   47.1256: real time   51.1960

 eigenvalue-minimisations  :     0
 total energy-change (2. order) :-0.7254677E-04  (-0.1748142E-04)
 number of electron      20.0000002 magnetization       0.0000029      0.0000029      0.0000029
 augmentation part       20.0000002 magnetization       0.0000029      0.0000029      0.0000029

 Free energy of the ion-electron system (eV)
  ---------------------------------------------------
  alpha Z        PSCENC =        34.30176334
  Ewald energy   TEWEN  =     -1366.58178547
  -Hartree energ DENC   =      -513.40574798
  -exchange      EXHF   =         0.00000000
  -V(xc)+E(xc)   XCENC  =         9.71753223
  PAW double counting   =      1878.37875726    -1823.09045373
  entropy T*S    EENTRO =        -0.00000000
  eigenvalues    EBANDS =      -112.15363261
  atomic energy  EATOM  =      1884.88874340
  ---------------------------------------------------
  free energy    TOTEN  =        -7.94482357 eV

  energy without entropy =       -7.94482357  energy(sigma->0) =       -7.94482357


--------------------------------------------------------------------------------------------------------




--------------------------------------- Iteration      1(  10)  ---------------------------------------


    TRIAL :  cpu time   30.9227: real time   33.4421
    CORREC:  cpu time    5.5653: real time    5.5725
    --------------------------------------------
      LOOP:  cpu time   36.4883: real time   39.0155

 eigenvalue-minimisations  :     0
 total energy-change (2. order) :-0.1748122E-04  (-0.3882981E-05)
 number of electron      20.0000002 magnetization       0.0000029      0.0000029      0.0000029
 augmentation part       20.0000002 magnetization       0.0000029      0.0000029      0.0000029

 Free energy of the ion-electron system (eV)
  ---------------------------------------------------
  alpha Z        PSCENC =        34.30176334
  Ewald energy   TEWEN  =     -1366.58178547
  -Hartree energ DENC   =      -513.40574798
  -exchange      EXHF   =         0.00000000
  -V(xc)+E(xc)   XCENC  =         9.71753223
  PAW double counting   =      1878.37875726    -1823.09045373
  entropy T*S    EENTRO =        -0.00000000
  eigenvalues    EBANDS =      -112.15365009
  atomic energy  EATOM  =      1884.88874340
  ---------------------------------------------------
  free energy    TOTEN  =        -7.94484105 eV

  energy without entropy =       -7.94484105  energy(sigma->0) =       -7.94484105


--------------------------------------------------------------------------------------------------------




--------------------------------------- Iteration      1(  11)  ---------------------------------------


    TRIAL :  cpu time   30.3792: real time   35.4466
    CORREC:  cpu time    7.2420: real time    8.6557
    --------------------------------------------
      LOOP:  cpu time   37.6216: real time   44.1028

 eigenvalue-minimisations  :     0
 total energy-change (2. order) :-0.3882903E-05  (-0.8200049E-06)
 number of electron      20.0000002 magnetization       0.0000029      0.0000029      0.0000029
 augmentation part       20.0000002 magnetization       0.0000029      0.0000029      0.0000029

 Free energy of the ion-electron system (eV)
  ---------------------------------------------------
  alpha Z        PSCENC =        34.30176334
  Ewald energy   TEWEN  =     -1366.58178547
  -Hartree energ DENC   =      -513.40574798
  -exchange      EXHF   =         0.00000000
  -V(xc)+E(xc)   XCENC  =         9.71753223
  PAW double counting   =      1878.37875726    -1823.09045373
  entropy T*S    EENTRO =        -0.00000000
  eigenvalues    EBANDS =      -112.15365398
  atomic energy  EATOM  =      1884.88874340
  ---------------------------------------------------
  free energy    TOTEN  =        -7.94484494 eV

  energy without entropy =       -7.94484494  energy(sigma->0) =       -7.94484494


--------------------------------------------------------------------------------------------------------




--------------------------------------- Iteration      1(  12)  ---------------------------------------


    TRIAL :  cpu time   37.7780: real time   41.7311
    CORREC:  cpu time    7.3577: real time    7.4686
    --------------------------------------------
      LOOP:  cpu time   45.1359: real time   49.1999

 eigenvalue-minimisations  :     0
 total energy-change (2. order) :-0.8199088E-06  (-0.2729598E-06)
 number of electron      20.0000002 magnetization       0.0000029      0.0000029      0.0000029
 augmentation part       20.0000002 magnetization       0.0000029      0.0000029      0.0000029

 Free energy of the ion-electron system (eV)
  ---------------------------------------------------
  alpha Z        PSCENC =        34.30176334
  Ewald energy   TEWEN  =     -1366.58178547
  -Hartree energ DENC   =      -513.40574798
  -exchange      EXHF   =         0.00000000
  -V(xc)+E(xc)   XCENC  =         9.71753223
  PAW double counting   =      1878.37875726    -1823.09045373
  entropy T*S    EENTRO =        -0.00000000
  eigenvalues    EBANDS =      -112.15365480
  atomic energy  EATOM  =      1884.88874340
  ---------------------------------------------------
  free energy    TOTEN  =        -7.94484576 eV

  energy without entropy =       -7.94484576  energy(sigma->0) =       -7.94484576


--------------------------------------------------------------------------------------------------------




--------------------------------------- Iteration      1(  13)  ---------------------------------------


    TRIAL :  cpu time   42.3552: real time   43.1907
    CORREC:  cpu time    6.0648: real time    6.1392
    --------------------------------------------
      LOOP:  cpu time   48.4210: real time   49.3316

 eigenvalue-minimisations  :     0
 total energy-change (2. order) :-0.2729591E-06  (-0.4165063E-07)
 number of electron      20.0000002 magnetization       0.0000029      0.0000029      0.0000029
 augmentation part       20.0000002 magnetization       0.0000029      0.0000029      0.0000029

 Free energy of the ion-electron system (eV)
  ---------------------------------------------------
  alpha Z        PSCENC =        34.30176334
  Ewald energy   TEWEN  =     -1366.58178547
  -Hartree energ DENC   =      -513.40574798
  -exchange      EXHF   =         0.00000000
  -V(xc)+E(xc)   XCENC  =         9.71753223
  PAW double counting   =      1878.37875726    -1823.09045373
  entropy T*S    EENTRO =        -0.00000000
  eigenvalues    EBANDS =      -112.15365507
  atomic energy  EATOM  =      1884.88874340
  ---------------------------------------------------
  free energy    TOTEN  =        -7.94484603 eV

  energy without entropy =       -7.94484603  energy(sigma->0) =       -7.94484603


--------------------------------------------------------------------------------------------------------




--------------------------------------- Iteration      1(  14)  ---------------------------------------


    TRIAL :  cpu time   30.5718: real time   34.2143
    CORREC:  cpu time    5.7156: real time    6.2808
    EDDIAG:  cpu time   10.6928: real time   11.9242
    --------------------------------------------
      LOOP:  cpu time   46.9805: real time   52.4195

 eigenvalue-minimisations  :     0
 total energy-change (2. order) :-0.4165076E-07  (-0.1073343E-07)
 number of electron      20.0000002 magnetization       0.0000029      0.0000029      0.0000029
 augmentation part       20.0000002 magnetization       0.0000029      0.0000029      0.0000029

 Free energy of the ion-electron system (eV)
  ---------------------------------------------------
  alpha Z        PSCENC =        34.30176334
  Ewald energy   TEWEN  =     -1366.58178547
  -Hartree energ DENC   =      -513.40574798
  -exchange      EXHF   =         0.00000000
  -V(xc)+E(xc)   XCENC  =         9.71753223
  PAW double counting   =      1878.37875726    -1823.09045373
  entropy T*S    EENTRO =        -0.00000000
  eigenvalues    EBANDS =      -112.15365511
  atomic energy  EATOM  =      1884.88874340
  ---------------------------------------------------
  free energy    TOTEN  =        -7.94484607 eV

  energy without entropy =       -7.94484607  energy(sigma->0) =       -7.94484607


--------------------------------------------------------------------------------------------------------


  average scaling for gradient   1.2463


 average (electrostatic) potential at core
  the test charge radii are     1.1897  1.1541
  (the norm of the test charge is              1.0000)
       1 -88.7235       2 -92.0749



 E-fermi :   5.1363     XC(G=0):  -9.0734     alpha+bet :-10.3015


 k-point     1 :       0.0000    0.0000    0.0000
  band No.  band energies     occupation 
      1     -13.0670      1.00000
      2     -13.0670      1.00000
      3     -13.0670      1.00000
      4     -13.0670      1.00000
      5     -10.5113      1.00000
      6     -10.5113      1.00000
      7     -10.5113      1.00000
      8     -10.5113      1.00000
      9     -10.5046      1.00000
     10     -10.5046      1.00000
     11      -6.6308      1.00000
     12      -6.6308      1.00000
     13      -0.6743      1.00000
     14      -0.6743      1.00000
     15       3.0997      1.00000
     16       3.0997      1.00000
     17       4.1360      1.00000
     18       4.1360      1.00000
     19       4.1360      1.00000
     20       4.1360      1.00000
     21       7.6861      0.00000
     22       7.6861      0.00000
     23       9.6349      0.00000
     24       9.6349      0.00000
     25       9.6349      0.00000
     26       9.6349      0.00000
     27      10.8709      0.00000
     28      10.8709      0.00000
     29      10.8709      0.00000
     30      10.8709      0.00000
     31      11.0028      0.00000
     32      11.0029      0.00000
     33      12.4260      0.00000
     34      12.4260      0.00000
     35      12.5455      0.00000
     36      12.5455      0.00000
     37      12.9850      0.00000
     38      12.9850      0.00000
     39      12.9850      0.00000
     40      12.9850      0.00000
     41      23.3424      0.00000
     42      23.3424      0.00000
     43      23.3424      0.00000
     44      23.3424      0.00000
     45      23.3424      0.00000
     46      23.3425      0.00000
     47      23.4576      0.00000
     48      23.4578      0.00000
     49      24.4056      0.00000
     50      24.4056      0.00000
     51      24.4074      0.00000
     52      24.4171      0.00000
     53      24.7694      0.00000
     54      24.7694      0.00000
     55      24.7698      0.00000
     56      24.7817      0.00000
     57      25.1677      0.00000
     58      25.1717      0.00000
     59      26.1807      0.00000
     60      26.1888      0.00000

 k-point     2 :       0.0172    0.0000    0.0172
  band No.  band energies     occupation 
      1     -13.0670      1.00000
      2     -13.0670      1.00000
      3     -13.0670      1.00000
      4     -13.0670      1.00000
      5     -10.5113      1.00000
      6     -10.5113      1.00000
      7     -10.5113      1.00000
      8     -10.5113      1.00000
      9     -10.5045      1.00000
     10     -10.5045      1.00000
     11      -6.6277      1.00000
     12      -6.6277      1.00000
     13      -0.6845      1.00000
     14      -0.6845      1.00000
     15       3.1029      1.00000
     16       3.1029      1.00000
     17       4.1308      1.00000
     18       4.1308      1.00000
     19       4.1455      1.00000
     20       4.1455      1.00000
     21       7.6730      0.00000
     22       7.6730      0.00000
     23       9.5879      0.00000
     24       9.5879      0.00000
     25       9.6323      0.00000
     26       9.6323      0.00000
     27      10.8581      0.00000
     28      10.8581      0.00000
     29      10.8859      0.00000
     30      10.8859      0.00000
     31      11.0093      0.00000
     32      11.0093      0.00000
     33      12.4540      0.00000
     34      12.4540      0.00000
     35      12.5783      0.00000
     36      12.5783      0.00000
     37      12.9881      0.00000
     38      12.9881      0.00000
     39      13.0303      0.00000
     40      13.0303      0.00000
     41      23.2885      0.00000
     42      23.2885      0.00000
     43      23.2980      0.00000
     44      23.2980      0.00000
     45      23.3143      0.00000
     46      23.3144      0.00000
     47      23.4165      0.00000
     48      23.4166      0.00000
     49      24.3010      0.00000
     50      24.3010      0.00000
     51      24.3180      0.00000
     52      24.3181      0.00000
     53      24.8220      0.00000
     54      24.8221      0.00000
     55      24.8792      0.00000
     56      24.8794      0.00000
     57      25.2460      0.00000
     58      25.2485      0.00000
     59      26.2319      0.00000
     60      26.2379      0.00000

 k-point     3 :       0.0345    0.0000    0.0345
  band No.  band energies     occupation 
      1     -13.0670      1.00000
      2     -13.0670      1.00000
      3     -13.0670      1.00000
      4     -13.0670      1.00000
      5     -10.5115      1.00000
      6     -10.5115      1.00000
      7     -10.5112      1.00000
      8     -10.5112      1.00000
      9     -10.5044      1.00000
     10     -10.5044      1.00000
     11      -6.6183      1.00000
     12      -6.6183      1.00000
     13      -0.7145      1.00000
     14      -0.7145      1.00000
     15       3.1109      1.00000
     16       3.1109      1.00000
     17       4.1155      1.00000
     18       4.1155      1.00000
     19       4.1749      1.00000
     20       4.1749      1.00000
     21       7.6324      0.00000
     22       7.6324      0.00000
     23       9.4626      0.00000
     24       9.4626      0.00000
     25       9.6253      0.00000
     26       9.6253      0.00000
     27      10.8043      0.00000
     28      10.8043      0.00000
     29      10.9302      0.00000
     30      10.9303      0.00000
     31      11.0483      0.00000
     32      11.0483      0.00000
[...]
 -0.000   0.000  -0.000   0.000  -0.000   0.000  12.714   0.000   0.000   0.000  -0.000   0.000  18.326   0.000   0.000   0.000
 -0.000   0.000  -0.000   0.000   0.000  -0.247   0.000   0.000  12.714   0.000   0.000  -0.356   0.000   0.000  18.326   0.000
 -0.000   0.000  -0.000   0.000  18.326   0.000  -0.000   0.000   0.000   0.356  26.426   0.000  -0.000   0.000   0.000   0.513
 -0.000   0.000  -0.000   0.000  -0.000   0.000  18.326   0.000   0.000   0.000  -0.000   0.000  26.426   0.000   0.000   0.000
 -0.000   0.000  -0.000   0.000   0.000  -0.356   0.000   0.000  18.326   0.000   0.000  -0.513   0.000   0.000  26.426   0.000
  0.000   0.000   0.000   0.000  -0.000   0.000  -0.000   0.000  -0.000   0.000  -0.000   0.000  -0.000   0.000  -0.000   0.000
 -0.000   0.000  -0.000   0.000  -0.000   0.000  -0.000   0.000  -0.000   0.000  -0.000   0.000  -0.000   0.000  -0.000   0.000
  0.000   0.000   0.000   0.000   0.000   0.000  -0.000   0.000   0.000   0.000   0.000   0.000  -0.000   0.000   0.000   0.000
  0.000   0.000   0.000   0.000  -0.000   0.000  -0.000   0.000  -0.000   0.000  -0.000   0.000  -0.000   0.000  -0.000   0.000
  0.000   0.000   0.000   0.000   0.000   0.000  -0.000   0.000  -0.000   0.000   0.000   0.000  -0.000   0.000  -0.000   0.000
 pseudopotential strength for first ion, spin component:           2
  0.000  -0.000   0.000  -0.000   0.000   0.000   0.000   0.000   0.000  -0.000   0.000   0.000   0.000   0.000   0.000  -0.000
  0.000  -0.000   0.000  -0.000   0.000   0.000   0.000   0.000   0.000  -0.000   0.000   0.000   0.000   0.000   0.000  -0.000
  0.000   0.000   0.000   0.000   0.000  -0.000   0.000  -0.247  -0.000  -0.000   0.000  -0.000   0.000  -0.356  -0.000  -0.000
  0.000   0.000   0.000   0.000   0.000   0.247   0.000  -0.000  -0.247  -0.000   0.000   0.356   0.000  -0.000  -0.356  -0.000
  0.000  -0.000   0.000  -0.000  -0.000  -0.000   0.247  -0.000   0.000  -0.000  -0.000  -0.000   0.356  -0.000   0.000  -0.000
  0.000   0.000   0.000   0.000   0.000  -0.000   0.000  -0.356  -0.000  -0.000   0.000  -0.000   0.000  -0.513  -0.000  -0.000
  0.000   0.000   0.000   0.000   0.000   0.356   0.000  -0.000  -0.356  -0.000   0.000   0.513   0.000  -0.000  -0.513  -0.000
  0.000  -0.000   0.000  -0.000  -0.000  -0.000   0.356  -0.000   0.000  -0.000  -0.000  -0.000   0.513  -0.000   0.000  -0.000
 -0.000  -0.000  -0.000  -0.000   0.000  -0.000   0.000  -0.000   0.000   0.000   0.000  -0.000   0.000  -0.000   0.000   0.000
  0.000  -0.000   0.000  -0.000   0.000   0.000   0.000   0.000   0.000  -0.000   0.000   0.000   0.000   0.000   0.000  -0.000
 -0.000   0.000  -0.000   0.000  -0.000   0.000   0.000   0.000  -0.000   0.000  -0.000   0.000   0.000   0.000  -0.000   0.000
 -0.000  -0.000  -0.000  -0.000   0.000  -0.000   0.000  -0.000   0.000   0.000   0.000  -0.000   0.000  -0.000   0.000   0.000
  0.000   0.000   0.000   0.000  -0.000  -0.000  -0.000  -0.000   0.000  -0.000  -0.000  -0.000  -0.000  -0.000   0.000  -0.000
 pseudopotential strength for first ion, spin component:           3
  0.000   0.000   0.000   0.000   0.000  -0.000   0.000  -0.000   0.000   0.000   0.000  -0.000   0.000  -0.000   0.000   0.000
  0.000   0.000   0.000   0.000   0.000  -0.000   0.000  -0.000   0.000   0.000   0.000  -0.000   0.000  -0.000   0.000   0.000
  0.000  -0.000   0.000  -0.000   0.000   0.000   0.000  -0.247  -0.000   0.000   0.000   0.000   0.000  -0.356  -0.000   0.000
  0.000  -0.000   0.000  -0.000   0.000   0.247   0.000   0.000   0.247   0.000   0.000   0.356   0.000   0.000   0.356   0.000
  0.000   0.000   0.000   0.000  -0.000   0.000  -0.247   0.000   0.000   0.000  -0.000   0.000  -0.356   0.000   0.000   0.000
  0.000  -0.000   0.000  -0.000   0.000   0.000   0.000  -0.356  -0.000   0.000   0.000   0.000   0.000  -0.513  -0.000   0.000
  0.000  -0.000   0.000  -0.000   0.000   0.356   0.000   0.000   0.356   0.000   0.000   0.513   0.000   0.000   0.513   0.000
  0.000   0.000   0.000   0.000  -0.000   0.000  -0.356   0.000   0.000   0.000  -0.000   0.000  -0.513   0.000   0.000   0.000
 -0.000   0.000  -0.000   0.000   0.000   0.000   0.000   0.000   0.000  -0.000   0.000   0.000   0.000   0.000   0.000  -0.000
  0.000   0.000   0.000   0.000   0.000  -0.000   0.000  -0.000   0.000   0.000   0.000  -0.000   0.000  -0.000   0.000   0.000
 -0.000  -0.000  -0.000  -0.000  -0.000  -0.000   0.000  -0.000  -0.000  -0.000  -0.000  -0.000   0.000  -0.000  -0.000  -0.000
 -0.000   0.000  -0.000   0.000   0.000   0.000   0.000   0.000   0.000  -0.000   0.000   0.000   0.000   0.000   0.000  -0.000
  0.000  -0.000   0.000  -0.000  -0.000   0.000  -0.000   0.000   0.000   0.000  -0.000   0.000  -0.000   0.000   0.000   0.000
 pseudopotential strength for first ion, spin component:           4
 51.584   0.000  56.124   0.000   0.000   0.000   0.000   0.000   0.000   0.000   0.000   0.000   0.000   0.000   0.000   0.000
 56.124   0.000  61.068   0.000   0.000   0.000   0.000   0.000   0.000   0.000   0.000   0.000   0.000   0.000   0.000   0.000
  0.000   0.000   0.000   0.000  12.714   0.000   0.000   0.000  -0.000  -0.247  18.326   0.000   0.000   0.000  -0.000  -0.356
  0.000   0.000   0.000   0.000   0.000   0.000  12.714   0.000  -0.000   0.000   0.000   0.000  18.326   0.000  -0.000   0.000
  0.000   0.000   0.000   0.000  -0.000   0.247  -0.000   0.000  12.714   0.000  -0.000   0.356  -0.000   0.000  18.326   0.000
  0.000   0.000   0.000   0.000  18.326   0.000   0.000   0.000  -0.000  -0.356  26.426   0.000   0.000   0.000  -0.000  -0.513
  0.000   0.000   0.000   0.000   0.000   0.000  18.326   0.000  -0.000   0.000   0.000   0.000  26.426   0.000  -0.000   0.000
  0.000   0.000   0.000   0.000  -0.000   0.356  -0.000   0.000  18.326   0.000  -0.000   0.513  -0.000   0.000  26.426   0.000
 -0.000   0.000  -0.000   0.000   0.000   0.000   0.000   0.000   0.000   0.000   0.000   0.000   0.000   0.000   0.000   0.000
  0.000   0.000   0.000   0.000   0.000   0.000   0.000   0.000   0.000   0.000   0.000   0.000   0.000   0.000   0.000   0.000
 -0.000   0.000  -0.000   0.000  -0.000   0.000   0.000   0.000  -0.000   0.000  -0.000   0.000   0.000   0.000  -0.000   0.000
 -0.000   0.000  -0.000   0.000   0.000   0.000   0.000   0.000   0.000   0.000   0.000   0.000   0.000   0.000   0.000   0.000
 -0.000   0.000  -0.000   0.000  -0.000   0.000   0.000   0.000   0.000   0.000  -0.000   0.000   0.000   0.000   0.000   0.000
 total augmentation occupancy for first ion, spin component:           1
  2.000   0.000   0.000   0.000   0.000   0.000   0.000   0.000   0.000   0.000   0.000   0.000   0.000
  0.000   0.000   0.000   0.000   0.000   0.000   0.000   0.000   0.000   0.000   0.000   0.000   0.000
  0.000   0.000   1.333   0.000   0.000   0.000   0.000   0.000   0.000   0.000   0.000   0.000   0.000
  0.000   0.000   0.000   1.333   0.000   0.000   0.000   0.000   0.000   0.000   0.000   0.000   0.000
  0.000   0.000   0.000   0.000   1.333   0.000   0.000   0.000   0.000   0.000   0.000   0.000   0.000
  0.000   0.000   0.000   0.000   0.000   0.000   0.000   0.000   0.000   0.000   0.000   0.000   0.000
  0.000   0.000   0.000   0.000   0.000   0.000   0.000   0.000   0.000   0.000   0.000   0.000   0.000
  0.000   0.000   0.000   0.000   0.000   0.000   0.000   0.000   0.000   0.000   0.000   0.000   0.000
  0.000   0.000   0.000   0.000   0.000   0.000   0.000   0.000   0.000   0.000   0.000   0.000   0.000
  0.000   0.000   0.000   0.000   0.000   0.000   0.000   0.000   0.000   0.000   0.000   0.000   0.000
  0.000   0.000   0.000   0.000   0.000   0.000   0.000   0.000   0.000   0.000   0.000   0.000   0.000
  0.000   0.000   0.000   0.000   0.000   0.000   0.000   0.000   0.000   0.000   0.000   0.000   0.000
  0.000   0.000   0.000   0.000   0.000   0.000   0.000   0.000   0.000   0.000   0.000   0.000   0.000
 total augmentation occupancy for first ion, spin component:           2
  0.333   0.000   0.000   0.000   0.000   0.000   0.000   0.000   0.000   0.000   0.000   0.000   0.000
  0.000   0.000   0.000   0.000   0.000   0.000   0.000   0.000   0.000   0.000   0.000   0.000   0.000
  0.000   0.000   0.222   0.000   0.000   0.000   0.000   0.000   0.000   0.000   0.000   0.000   0.000
  0.000   0.000   0.000   0.222   0.000   0.000   0.000   0.000   0.000   0.000   0.000   0.000   0.000
  0.000   0.000   0.000   0.000   0.222   0.000   0.000   0.000   0.000   0.000   0.000   0.000   0.000
  0.000   0.000   0.000   0.000   0.000   0.000   0.000   0.000   0.000   0.000   0.000   0.000   0.000
  0.000   0.000   0.000   0.000   0.000   0.000   0.000   0.000   0.000   0.000   0.000   0.000   0.000
  0.000   0.000   0.000   0.000   0.000   0.000   0.000   0.000   0.000   0.000   0.000   0.000   0.000
  0.000   0.000   0.000   0.000   0.000   0.000   0.000   0.000   0.000   0.000   0.000   0.000   0.000
  0.000   0.000   0.000   0.000   0.000   0.000   0.000   0.000   0.000   0.000   0.000   0.000   0.000
  0.000   0.000   0.000   0.000   0.000   0.000   0.000   0.000   0.000   0.000   0.000   0.000   0.000
  0.000   0.000   0.000   0.000   0.000   0.000   0.000   0.000   0.000   0.000   0.000   0.000   0.000
  0.000   0.000   0.000   0.000   0.000   0.000   0.000   0.000   0.000   0.000   0.000   0.000   0.000
 total augmentation occupancy for first ion, spin component:           3
  0.333   0.000   0.000   0.000   0.000   0.000   0.000   0.000   0.000   0.000   0.000   0.000   0.000
  0.000   0.000   0.000   0.000   0.000   0.000   0.000   0.000   0.000   0.000   0.000   0.000   0.000
  0.000   0.000   0.222   0.000   0.000   0.000   0.000   0.000   0.000   0.000   0.000   0.000   0.000
  0.000   0.000   0.000   0.222   0.000   0.000   0.000   0.000   0.000   0.000   0.000   0.000   0.000
  0.000   0.000   0.000   0.000   0.222   0.000   0.000   0.000   0.000   0.000   0.000   0.000   0.000
  0.000   0.000   0.000   0.000   0.000   0.000   0.000   0.000   0.000   0.000   0.000   0.000   0.000
  0.000   0.000   0.000   0.000   0.000   0.000   0.000   0.000   0.000   0.000   0.000   0.000   0.000
  0.000   0.000   0.000   0.000   0.000   0.000   0.000   0.000   0.000   0.000   0.000   0.000   0.000
  0.000   0.000   0.000   0.000   0.000   0.000   0.000   0.000   0.000   0.000   0.000   0.000   0.000
  0.000   0.000   0.000   0.000   0.000   0.000   0.000   0.000   0.000   0.000   0.000   0.000   0.000
  0.000   0.000   0.000   0.000   0.000   0.000   0.000   0.000   0.000   0.000   0.000   0.000   0.000
  0.000   0.000   0.000   0.000   0.000   0.000   0.000   0.000   0.000   0.000   0.000   0.000   0.000
  0.000   0.000   0.000   0.000   0.000   0.000   0.000   0.000   0.000   0.000   0.000   0.000   0.000
 total augmentation occupancy for first ion, spin component:           4
  0.333   0.000   0.000   0.000   0.000   0.000   0.000   0.000   0.000   0.000   0.000   0.000   0.000
  0.000   0.000   0.000   0.000   0.000   0.000   0.000   0.000   0.000   0.000   0.000   0.000   0.000
  0.000   0.000   0.222   0.000   0.000   0.000   0.000   0.000   0.000   0.000   0.000   0.000   0.000
  0.000   0.000   0.000   0.222   0.000   0.000   0.000   0.000   0.000   0.000   0.000   0.000   0.000
  0.000   0.000   0.000   0.000   0.222   0.000   0.000   0.000   0.000   0.000   0.000   0.000   0.000
  0.000   0.000   0.000   0.000   0.000   0.000   0.000   0.000   0.000   0.000   0.000   0.000   0.000
  0.000   0.000   0.000   0.000   0.000   0.000   0.000   0.000   0.000   0.000   0.000   0.000   0.000
  0.000   0.000   0.000   0.000   0.000   0.000   0.000   0.000   0.000   0.000   0.000   0.000   0.000
  0.000   0.000   0.000   0.000   0.000   0.000   0.000   0.000   0.000   0.000   0.000   0.000   0.000
  0.000   0.000   0.000   0.000   0.000   0.000   0.000   0.000   0.000   0.000   0.000   0.000   0.000
  0.000   0.000   0.000   0.000   0.000   0.000   0.000   0.000   0.000   0.000   0.000   0.000   0.000
  0.000   0.000   0.000   0.000   0.000   0.000   0.000   0.000   0.000   0.000   0.000   0.000   0.000
  0.000   0.000   0.000   0.000   0.000   0.000   0.000   0.000   0.000   0.000   0.000   0.000   0.000


------------------------ aborting loop because EDIFF is reached ----------------------------------------


    CHARGE:  cpu time    2.0043: real time    2.0052
    FORLOC:  cpu time    0.0057: real time    0.0057
    FORNL :  cpu time    7.4249: real time    8.6886
    STRESS:  cpu time   17.4370: real time   19.3564
    FORCOR:  cpu time    0.2736: real time    0.2737
    FORHAR:  cpu time    0.0240: real time    0.0245
    OFIELD:  cpu time    0.0030: real time    0.0030

  FORCE on cell =-STRESS in cart. coord.  units (eV):
  Direction    XX          YY          ZZ          XY          YZ          ZX
  --------------------------------------------------------------------------------------
  Alpha Z    34.30176    34.30176    34.30176
  Ewald    -455.52738  -455.52738  -455.52738    -0.00000    -0.00000     0.00000
  Hartree   168.19182   172.31073   172.26191     0.26320    -0.03549     0.20185
  E(xc)     -90.44966   -90.21598   -90.20348     0.04399     0.02274     0.03480
  Local    -127.12498  -131.43302  -131.76741     0.10470     0.32885     0.10919
  n-local   181.61409   179.50975   179.76896    -0.36824    -0.25536    -0.30742
  augment    95.77451    96.29832    96.08171     0.04425     0.04934     0.04108
  Kinetic   198.58988   193.05594   192.82041    -2.53288    -1.27113    -2.00378
  Fock        0.00000     0.00000     0.00000     0.00000     0.00000     0.00000
  -------------------------------------------------------------------------------------
  Total       5.37003    -1.69987    -2.26352    -2.44499    -1.16105    -1.92429
  in kB     121.42957   -38.43827   -51.18364   -55.28710   -26.25412   -43.51279
  external pressure =       10.60 kB  Pullay stress =        0.00 kB


 VOLUME and BASIS-vectors are now :
 -----------------------------------------------------------------------------
  energy-cutoff  :      600.00
  volume of cell :       70.85
      direct lattice vectors                 reciprocal lattice vectors
     0.000000000  3.284311990  3.284311990    -0.152238886  0.152238886  0.152238886
     3.284311990  0.000000000  3.284311990     0.152238886 -0.152238886  0.152238886
     3.284311990  3.284311990  0.000000000     0.152238886  0.152238886 -0.152238886

  length of vectors
     4.644718559  4.644718559  4.644718559     0.263685486  0.263685486  0.263685486


 FORCES acting on ions
    electron-ion (+dipol)            ewald-force                    non-local-force                 convergence-correction
 -----------------------------------------------------------------------------------------------
   -.692E-06 0.662E-07 0.457E-06   -.250E-14 -.153E-15 -.177E-14   0.173E-05 -.250E-06 -.804E-06   -.375E-06 0.242E-07 0.610E-07
   0.664E-06 -.437E-05 -.314E-05   0.299E-14 -.257E-14 0.172E-14   0.704E-06 0.362E-05 0.345E-05   0.198E-07 0.227E-05 0.153E-05
 -----------------------------------------------------------------------------------------------
   -.278E-07 -.431E-05 -.268E-05   0.491E-15 -.272E-14 -.560E-16   0.243E-05 0.337E-05 0.265E-05   -.355E-06 0.229E-05 0.159E-05


 POSITION                                       TOTAL-FORCE (eV/Angst)
 -----------------------------------------------------------------------------------
      0.00000      0.00000      0.00000        -0.000000     -0.000001     -0.000001
      3.28431      3.28431      3.28431         0.000000      0.000001      0.000001
 -----------------------------------------------------------------------------------
    total drift:                                0.000002      0.000001      0.000002


--------------------------------------------------------------------------------------------------------



  FREE ENERGIE OF THE ION-ELECTRON SYSTEM (eV)
  ---------------------------------------------------
  free  energy   TOTEN  =        -7.94484607 eV

  energy  without entropy=       -7.94484607  energy(sigma->0) =       -7.94484607



--------------------------------------------------------------------------------------------------------


    POTLOK:  cpu time    0.7691: real time    0.9904


--------------------------------------------------------------------------------------------------------


     LOOP+:  cpu time  602.8979: real time  635.5960
    4ORBIT:  cpu time    0.0000: real time    0.0000

 Spin-Orbit-Coupling matrix elements

 Ion:    1  E_soc:     -0.1847688
 l=   1
     0.0000000    -0.0383283    -0.0301673
    -0.0383283     0.0000000    -0.0239703
    -0.0301673    -0.0239703     0.0000000
 l=   2
     0.0000000    -0.0000069     0.0000000    -0.0000120     0.0000357
    -0.0000069     0.0000000     0.0000270    -0.0000072     0.0000118
     0.0000000     0.0000270     0.0000000     0.0000235     0.0000000
    -0.0000120    -0.0000072     0.0000235     0.0000000     0.0000095
     0.0000357     0.0000118     0.0000000     0.0000095     0.0000000
 l=   3
     0.0000000     0.0000000     0.0000000     0.0000000     0.0000000     0.0000000     0.0000000
     0.0000000     0.0000000     0.0000000     0.0000000     0.0000000     0.0000000     0.0000000
     0.0000000     0.0000000     0.0000000     0.0000000     0.0000000     0.0000000     0.0000000
     0.0000000     0.0000000     0.0000000     0.0000000     0.0000000     0.0000000     0.0000000
     0.0000000     0.0000000     0.0000000     0.0000000     0.0000000     0.0000000     0.0000000
     0.0000000     0.0000000     0.0000000     0.0000000     0.0000000     0.0000000     0.0000000
     0.0000000     0.0000000     0.0000000     0.0000000     0.0000000     0.0000000     0.0000000

 Ion:    2  E_soc:     -0.8509433
 l=   1
     0.0000000    -0.0820348    -0.0715791
    -0.0820348     0.0000000    -0.0696255
    -0.0715791    -0.0696255     0.0000000
 l=   2
     0.0000000    -0.0133943     0.0000000    -0.0135184    -0.0540149
    -0.0133943     0.0000000    -0.0401560    -0.0134676    -0.0133425
     0.0000000    -0.0401560     0.0000000    -0.0407484     0.0000000
    -0.0135184    -0.0134676    -0.0407484     0.0000000    -0.0135901
    -0.0540149    -0.0133425     0.0000000    -0.0135901     0.0000000
 l=   3
     0.0000000     0.0000000     0.0000000     0.0000000     0.0000000     0.0000000     0.0000000
     0.0000000     0.0000000     0.0000000     0.0000000     0.0000000     0.0000000     0.0000000
     0.0000000     0.0000000     0.0000000     0.0000000     0.0000000     0.0000000     0.0000000
     0.0000000     0.0000000     0.0000000     0.0000000     0.0000000     0.0000000     0.0000000
     0.0000000     0.0000000     0.0000000     0.0000000     0.0000000     0.0000000     0.0000000
     0.0000000     0.0000000     0.0000000     0.0000000     0.0000000     0.0000000     0.0000000
     0.0000000     0.0000000     0.0000000     0.0000000     0.0000000     0.0000000     0.0000000

 total amount of memory used by VASP MPI-rank0   493871. kBytes
=======================================================================

   base      :      30000. kBytes
   nonl-proj :      69849. kBytes
   fftplans  :      19688. kBytes
   grid      :      19456. kBytes
   one-center:         62. kBytes
   wavefun   :     354816. kBytes

  
  
 General timing and accounting informations for this job:
 ========================================================
  
                  Total CPU time used (sec):      611.180
                            User time (sec):      603.058
                          System time (sec):        8.122
                         Elapsed time (sec):      645.037
  
                   Maximum memory used (kb):      570928.
                   Average memory used (kb):           0.
  
                          Minor page faults:      1512021
                          Major page faults:            0
                 Voluntary context switches:         2203
