<?xml version="1.0" encoding="ISO-8859-1"?>
<modeling>
 <generator>
  <i name="program" type="string">vasp </i>
  <i name="version" type="string">5.4.4.18Apr17-6-g9f103f2a35  </i>
  <i name="subversion" type="string">(build Mar 20 2018 18:07:30) complex            parallel </i>
  <i name="platform" type="string">LinuxGNU </i>
  <i name="date" type="string">2020 07 03 </i>
  <i name="time" type="string">13:39:45 </i>
 </generator>
 <incar>
  <i type="string" name="SYSTEM"> PbTe</i>
  <i type="int" name="ISTART">     1</i>
  <i type="string" name="PREC">accurate</i>
  <i type="string" name="ALGO"> A</i>
  <i type="logical" name="ADDGRID"> T  </i>
  <i type="logical" name="LSORBIT"> T  </i>
  <i type="int" name="ISPIN">     1</i>
  <i type="int" name="ICHARG">    11</i>
  <i type="int" name="IBRION">    -1</i>
  <i name="EDIFF">      0.00000010</i>
  <i name="EDIFFG">     -0.00100000</i>
  <i type="int" name="NSW">     0</i>
  <i type="int" name="ISYM">    -1</i>
  <i name="ENCUT">    600.00000000</i>
  <i type="int" name="NBANDS">    60</i>
  <i type="logical" name="LREAL"> F  </i>
  <i type="logical" name="LPLANE"> T  </i>
  <i type="int" name="ISMEAR">     0</i>
  <i name="SIGMA">      0.01000000</i>
  <i type="int" name="LMAXMIX">     4</i>
  <i type="logical" name="LWAVE"> F  </i>
  <i type="logical" name="LCHARG"> F  </i>
  <i type="logical" name="GGA_COMPAT"> F  </i>
  <v type="int" name="KPOINT_BSE">    -1     0     0     0</v>
 </incar>
 <structure name="primitive_cell" >
  <crystal>
   <varray name="basis" >
    <v>       0.00000000       3.28431199       3.28431199 </v>
    <v>       3.28431199       0.00000000       3.28431199 </v>
    <v>       3.28431199       3.28431199       0.00000000 </v>
   </varray>
   <i name="volume">     70.85381075 </i>
   <varray name="rec_basis" >
    <v>      -0.15223889       0.15223889       0.15223889 </v>
    <v>       0.15223889      -0.15223889       0.15223889 </v>
    <v>       0.15223889       0.15223889      -0.15223889 </v>
   </varray>
  </crystal>
  <varray name="positions" >
   <v>       0.00000000       0.00000000       0.00000000 </v>
   <v>      -0.50000000      -0.50000000      -0.50000000 </v>
  </varray>
 </structure>
 <varray name="primitive_index" >
  <v type="int" >        1 </v>
  <v type="int" >        2 </v>
 </varray>
 <kpoints>
  <varray name="kpointlist" >
   <v>       0.00000000       0.00000000       0.00000000 </v>
   <v>       0.01724138       0.00000000       0.01724138 </v>
   <v>       0.03448276       0.00000000       0.03448276 </v>
   <v>       0.05172414       0.00000000       0.05172414 </v>
   <v>       0.06896552       0.00000000       0.06896552 </v>
   <v>       0.08620690       0.00000000       0.08620690 </v>
   <v>       0.10344828       0.00000000       0.10344828 </v>
   <v>       0.12068966       0.00000000       0.12068966 </v>
   <v>       0.13793103       0.00000000       0.13793103 </v>
   <v>       0.15517241      -0.00000000       0.15517241 </v>
   <v>       0.17241379       0.00000000       0.17241379 </v>
   <v>       0.18965517       0.00000000       0.18965517 </v>
   <v>       0.20689655       0.00000000       0.20689655 </v>
   <v>       0.22413793      -0.00000000       0.22413793 </v>
   <v>       0.24137931       0.00000000       0.24137931 </v>
   <v>       0.25862069      -0.00000000       0.25862069 </v>
   <v>       0.27586207       0.00000000       0.27586207 </v>
   <v>       0.29310345       0.00000000       0.29310345 </v>
   <v>       0.31034483      -0.00000000       0.31034483 </v>
   <v>       0.32758621       0.00000000       0.32758621 </v>
   <v>       0.34482759       0.00000000       0.34482759 </v>
   <v>       0.36206897       0.00000000       0.36206897 </v>
   <v>       0.37931034       0.00000000       0.37931034 </v>
   <v>       0.39655172       0.00000000       0.39655172 </v>
   <v>       0.41379310       0.00000000       0.41379310 </v>
   <v>       0.43103448       0.00000000       0.43103448 </v>
   <v>       0.44827586      -0.00000000       0.44827586 </v>
   <v>       0.46551724       0.00000000       0.46551724 </v>
   <v>       0.48275862       0.00000000       0.48275862 </v>
   <v>       0.50000000       0.00000000       0.50000000 </v>
   <v>       0.50000000       0.00000000       0.50000000 </v>
   <v>       0.50000000       0.01666667       0.51666667 </v>
   <v>       0.50000000       0.03333333       0.53333333 </v>
   <v>       0.50000000       0.05000000       0.55000000 </v>
   <v>       0.50000000       0.06666667       0.56666667 </v>
   <v>       0.50000000       0.08333333       0.58333333 </v>
   <v>       0.50000000       0.10000000       0.60000000 </v>
   <v>       0.50000000       0.11666667       0.61666667 </v>
   <v>       0.50000000       0.13333333       0.63333333 </v>
   <v>       0.50000000       0.15000000       0.65000000 </v>
   <v>       0.50000000       0.16666667       0.66666667 </v>
   <v>       0.50000000       0.18333333       0.68333333 </v>
   <v>       0.50000000       0.20000000       0.70000000 </v>
   <v>       0.50000000       0.21666667       0.71666667 </v>
   <v>       0.50000000       0.23333333       0.73333333 </v>
   <v>       0.50000000       0.25000000       0.75000000 </v>
   <v>       0.50000000       0.25000000       0.75000000 </v>
   <v>       0.48863636       0.26136364       0.75000000 </v>
   <v>       0.47727273       0.27272727       0.75000000 </v>
   <v>       0.46590909       0.28409091       0.75000000 </v>
   <v>       0.45454545       0.29545455       0.75000000 </v>
   <v>       0.44318182       0.30681818       0.75000000 </v>
   <v>       0.43181818       0.31818182       0.75000000 </v>
   <v>       0.42045455       0.32954545       0.75000000 </v>
   <v>       0.40909091       0.34090909       0.75000000 </v>
   <v>       0.39772727       0.35227273       0.75000000 </v>
   <v>       0.38636364       0.36363636       0.75000000 </v>
   <v>       0.37500000       0.37500000       0.75000000 </v>
   <v>       0.37500000       0.37500000       0.75000000 </v>
   <v>       0.36290323       0.36290323       0.72580645 </v>
   <v>       0.35080645       0.35080645       0.70161290 </v>
   <v>       0.33870968       0.33870968       0.67741935 </v>
   <v>       0.32661290       0.32661290       0.65322581 </v>
   <v>       0.31451613       0.31451613       0.62903226 </v>
   <v>       0.30241935       0.30241935       0.60483871 </v>
   <v>       0.29032258       0.29032258       0.58064516 </v>
   <v>       0.27822581       0.27822581       0.55645161 </v>
   <v>       0.26612903       0.26612903       0.53225806 </v>
   <v>       0.25403226       0.25403226       0.50806452 </v>
   <v>       0.24193548       0.24193548       0.48387097 </v>
   <v>       0.22983871       0.22983871       0.45967742 </v>
   <v>       0.21774194       0.21774194       0.43548387 </v>
   <v>       0.20564516       0.20564516       0.41129032 </v>
   <v>       0.19354839       0.19354839       0.38709677 </v>
   <v>       0.18145161       0.18145161       0.36290323 </v>
   <v>       0.16935484       0.16935484       0.33870968 </v>
   <v>       0.15725806       0.15725806       0.31451613 </v>
   <v>       0.14516129       0.14516129       0.29032258 </v>
   <v>       0.13306452       0.13306452       0.26612903 </v>
   <v>       0.12096774       0.12096774       0.24193548 </v>
   <v>       0.10887097       0.10887097       0.21774194 </v>
   <v>       0.09677419       0.09677419       0.19354839 </v>
   <v>       0.08467742       0.08467742       0.16935484 </v>
   <v>       0.07258065       0.07258065       0.14516129 </v>
   <v>       0.06048387       0.06048387       0.12096774 </v>
   <v>       0.04838710       0.04838710       0.09677419 </v>
   <v>       0.03629032       0.03629032       0.07258065 </v>
   <v>       0.02419355       0.02419355       0.04838710 </v>
   <v>       0.01209677       0.01209677       0.02419355 </v>
   <v>       0.00000000       0.00000000       0.00000000 </v>
   <v>       0.00000000       0.00000000       0.00000000 </v>
   <v>       0.02000000       0.02000000       0.02000000 </v>
   <v>       0.04000000       0.04000000       0.04000000 </v>
   <v>       0.06000000       0.06000000       0.06000000 </v>
   <v>       0.08000000       0.08000000       0.08000000 </v>
   <v>       0.10000000       0.10000000       0.10000000 </v>
   <v>       0.12000000       0.12000000       0.12000000 </v>
   <v>       0.14000000       0.14000000       0.14000000 </v>
   <v>       0.16000000       0.16000000       0.16000000 </v>
   <v>       0.18000000       0.18000000       0.18000000 </v>
   <v>       0.20000000       0.20000000       0.20000000 </v>
   <v>       0.22000000       0.22000000       0.22000000 </v>
   <v>       0.24000000       0.24000000       0.24000000 </v>
   <v>       0.26000000       0.26000000       0.26000000 </v>
   <v>       0.28000000       0.28000000       0.28000000 </v>
   <v>       0.30000000       0.30000000       0.30000000 </v>
   <v>       0.32000000       0.32000000       0.32000000 </v>
   <v>       0.34000000       0.34000000       0.34000000 </v>
   <v>       0.36000000       0.36000000       0.36000000 </v>
   <v>       0.38000000       0.38000000       0.38000000 </v>
   <v>       0.40000000       0.40000000       0.40000000 </v>
   <v>       0.42000000       0.42000000       0.42000000 </v>
   <v>       0.44000000       0.44000000       0.44000000 </v>
   <v>       0.46000000       0.46000000       0.46000000 </v>
   <v>       0.48000000       0.48000000       0.48000000 </v>
   <v>       0.50000000       0.50000000       0.50000000 </v>
   <v>       0.50000000       0.50000000       0.50000000 </v>
   <v>       0.50694444       0.48611111       0.50694444 </v>
   <v>       0.51388889       0.47222222       0.51388889 </v>
   <v>       0.52083333       0.45833333       0.52083333 </v>
   <v>       0.52777778       0.44444444       0.52777778 </v>
   <v>       0.53472222       0.43055556       0.53472222 </v>
   <v>       0.54166667       0.41666667       0.54166667 </v>
   <v>       0.54861111       0.40277778       0.54861111 </v>
   <v>       0.55555556       0.38888889       0.55555556 </v>
   <v>       0.56250000       0.37500000       0.56250000 </v>
   <v>       0.56944444       0.36111111       0.56944444 </v>
   <v>       0.57638889       0.34722222       0.57638889 </v>
   <v>       0.58333333       0.33333333       0.58333333 </v>
   <v>       0.59027778       0.31944444       0.59027778 </v>
   <v>       0.59722222       0.30555556       0.59722222 </v>
   <v>       0.60416667       0.29166667       0.60416667 </v>
   <v>       0.61111111       0.27777778       0.61111111 </v>
   <v>       0.61805556       0.26388889       0.61805556 </v>
   <v>       0.62500000       0.25000000       0.62500000 </v>
   <v>       0.62500000       0.25000000       0.62500000 </v>
   <v>       0.61363636       0.25000000       0.63636364 </v>
   <v>       0.60227273       0.25000000       0.64772727 </v>
   <v>       0.59090909       0.25000000       0.65909091 </v>
   <v>       0.57954545       0.25000000       0.67045455 </v>
   <v>       0.56818182       0.25000000       0.68181818 </v>
   <v>       0.55681818       0.25000000       0.69318182 </v>
   <v>       0.54545455       0.25000000       0.70454545 </v>
   <v>       0.53409091       0.25000000       0.71590909 </v>
   <v>       0.52272727       0.25000000       0.72727273 </v>
   <v>       0.51136364       0.25000000       0.73863636 </v>
   <v>       0.50000000       0.25000000       0.75000000 </v>
   <v>       0.50000000       0.25000000       0.75000000 </v>
   <v>       0.50000000       0.26190476       0.73809524 </v>
   <v>       0.50000000       0.27380952       0.72619048 </v>
   <v>       0.50000000       0.28571429       0.71428571 </v>
   <v>       0.50000000       0.29761905       0.70238095 </v>
   <v>       0.50000000       0.30952381       0.69047619 </v>
   <v>       0.50000000       0.32142857       0.67857143 </v>
   <v>       0.50000000       0.33333333       0.66666667 </v>
   <v>       0.50000000       0.34523810       0.65476190 </v>
   <v>       0.50000000       0.35714286       0.64285714 </v>
   <v>       0.50000000       0.36904762       0.63095238 </v>
   <v>       0.50000000       0.38095238       0.61904762 </v>
   <v>       0.50000000       0.39285714       0.60714286 </v>
   <v>       0.50000000       0.40476190       0.59523810 </v>
   <v>       0.50000000       0.41666667       0.58333333 </v>
   <v>       0.50000000       0.42857143       0.57142857 </v>
   <v>       0.50000000       0.44047619       0.55952381 </v>
   <v>       0.50000000       0.45238095       0.54761905 </v>
   <v>       0.50000000       0.46428571       0.53571429 </v>
   <v>       0.50000000       0.47619048       0.52380952 </v>
   <v>       0.50000000       0.48809524       0.51190476 </v>
   <v>       0.50000000       0.50000000       0.50000000 </v>
   <v>       0.50000000       0.50000000       0.50000000 </v>
   <v>       0.49305556       0.49305556       0.51388889 </v>
   <v>       0.48611111       0.48611111       0.52777778 </v>
   <v>       0.47916667       0.47916667       0.54166667 </v>
   <v>       0.47222222       0.47222222       0.55555556 </v>
   <v>       0.46527778       0.46527778       0.56944444 </v>
   <v>       0.45833333       0.45833333       0.58333333 </v>
   <v>       0.45138889       0.45138889       0.59722222 </v>
   <v>       0.44444444       0.44444444       0.61111111 </v>
   <v>       0.43750000       0.43750000       0.62500000 </v>
   <v>       0.43055556       0.43055556       0.63888889 </v>
   <v>       0.42361111       0.42361111       0.65277778 </v>
   <v>       0.41666667       0.41666667       0.66666667 </v>
   <v>       0.40972222       0.40972222       0.68055556 </v>
   <v>       0.40277778       0.40277778       0.69444444 </v>
   <v>       0.39583333       0.39583333       0.70833333 </v>
   <v>       0.38888889       0.38888889       0.72222222 </v>
   <v>       0.38194444       0.38194444       0.73611111 </v>
   <v>       0.37500000       0.37500000       0.75000000 </v>
   <v>       0.62500000       0.25000000       0.62500000 </v>
   <v>       0.61363636       0.22727273       0.61363636 </v>
   <v>       0.60227273       0.20454545       0.60227273 </v>
   <v>       0.59090909       0.18181818       0.59090909 </v>
   <v>       0.57954545       0.15909091       0.57954545 </v>
   <v>       0.56818182       0.13636364       0.56818182 </v>
   <v>       0.55681818       0.11363636       0.55681818 </v>
   <v>       0.54545455       0.09090909       0.54545455 </v>
   <v>       0.53409091       0.06818182       0.53409091 </v>
   <v>       0.52272727       0.04545455       0.52272727 </v>
   <v>       0.51136364       0.02272727       0.51136364 </v>
   <v>       0.50000000       0.00000000       0.50000000 </v>
  </varray>
  <varray name="weights" >
   <v>       0.00500000 </v>
   <v>       0.00500000 </v>
   <v>       0.00500000 </v>
   <v>       0.00500000 </v>
   <v>       0.00500000 </v>
   <v>       0.00500000 </v>
   <v>       0.00500000 </v>
   <v>       0.00500000 </v>
   <v>       0.00500000 </v>
   <v>       0.00500000 </v>
   <v>       0.00500000 </v>
   <v>       0.00500000 </v>
   <v>       0.00500000 </v>
   <v>       0.00500000 </v>
   <v>       0.00500000 </v>
   <v>       0.00500000 </v>
   <v>       0.00500000 </v>
   <v>       0.00500000 </v>
   <v>       0.00500000 </v>
   <v>       0.00500000 </v>
   <v>       0.00500000 </v>
   <v>       0.00500000 </v>
   <v>       0.00500000 </v>
   <v>       0.00500000 </v>
   <v>       0.00500000 </v>
   <v>       0.00500000 </v>
   <v>       0.00500000 </v>
   <v>       0.00500000 </v>
   <v>       0.00500000 </v>
   <v>       0.00500000 </v>
   <v>       0.00500000 </v>
   <v>       0.00500000 </v>
   <v>       0.00500000 </v>
   <v>       0.00500000 </v>
   <v>       0.00500000 </v>
   <v>       0.00500000 </v>
   <v>       0.00500000 </v>
   <v>       0.00500000 </v>
   <v>       0.00500000 </v>
   <v>       0.00500000 </v>
   <v>       0.00500000 </v>
   <v>       0.00500000 </v>
   <v>       0.00500000 </v>
   <v>       0.00500000 </v>
   <v>       0.00500000 </v>
   <v>       0.00500000 </v>
   <v>       0.00500000 </v>
   <v>       0.00500000 </v>
   <v>       0.00500000 </v>
   <v>       0.00500000 </v>
   <v>       0.00500000 </v>
   <v>       0.00500000 </v>
   <v>       0.00500000 </v>
   <v>       0.00500000 </v>
   <v>       0.00500000 </v>
   <v>       0.00500000 </v>
   <v>       0.00500000 </v>
   <v>       0.00500000 </v>
   <v>       0.00500000 </v>
   <v>       0.00500000 </v>
   <v>       0.00500000 </v>
   <v>       0.00500000 </v>
   <v>       0.00500000 </v>
   <v>       0.00500000 </v>
   <v>       0.00500000 </v>
   <v>       0.00500000 </v>
   <v>       0.00500000 </v>
   <v>       0.00500000 </v>
   <v>       0.00500000 </v>
   <v>       0.00500000 </v>
   <v>       0.00500000 </v>
   <v>       0.00500000 </v>
   <v>       0.00500000 </v>
   <v>       0.00500000 </v>
   <v>       0.00500000 </v>
   <v>       0.00500000 </v>
   <v>       0.00500000 </v>
   <v>       0.00500000 </v>
   <v>       0.00500000 </v>
   <v>       0.00500000 </v>
   <v>       0.00500000 </v>
   <v>       0.00500000 </v>
   <v>       0.00500000 </v>
   <v>       0.00500000 </v>
   <v>       0.00500000 </v>
   <v>       0.00500000 </v>
   <v>       0.00500000 </v>
   <v>       0.00500000 </v>
   <v>       0.00500000 </v>
   <v>       0.00500000 </v>
   <v>       0.00500000 </v>
   <v>       0.00500000 </v>
   <v>       0.00500000 </v>
   <v>       0.00500000 </v>
   <v>       0.00500000 </v>
   <v>       0.00500000 </v>
   <v>       0.00500000 </v>
   <v>       0.00500000 </v>
   <v>       0.00500000 </v>
   <v>       0.00500000 </v>
   <v>       0.00500000 </v>
   <v>       0.00500000 </v>
   <v>       0.00500000 </v>
   <v>       0.00500000 </v>
   <v>       0.00500000 </v>
   <v>       0.00500000 </v>
   <v>       0.00500000 </v>
   <v>       0.00500000 </v>
   <v>       0.00500000 </v>
   <v>       0.00500000 </v>
   <v>       0.00500000 </v>
   <v>       0.00500000 </v>
   <v>       0.00500000 </v>
   <v>       0.00500000 </v>
   <v>       0.00500000 </v>
   <v>       0.00500000 </v>
   <v>       0.00500000 </v>
   <v>       0.00500000 </v>
   <v>       0.00500000 </v>
   <v>       0.00500000 </v>
   <v>       0.00500000 </v>
   <v>       0.00500000 </v>
   <v>       0.00500000 </v>
   <v>       0.00500000 </v>
   <v>       0.00500000 </v>
   <v>       0.00500000 </v>
   <v>       0.00500000 </v>
   <v>       0.00500000 </v>
   <v>       0.00500000 </v>
   <v>       0.00500000 </v>
   <v>       0.00500000 </v>
   <v>       0.00500000 </v>
   <v>       0.00500000 </v>
   <v>       0.00500000 </v>
   <v>       0.00500000 </v>
   <v>       0.00500000 </v>
   <v>       0.00500000 </v>
   <v>       0.00500000 </v>
   <v>       0.00500000 </v>
   <v>       0.00500000 </v>
   <v>       0.00500000 </v>
   <v>       0.00500000 </v>
   <v>       0.00500000 </v>
   <v>       0.00500000 </v>
   <v>       0.00500000 </v>
   <v>       0.00500000 </v>
   <v>       0.00500000 </v>
   <v>       0.00500000 </v>
   <v>       0.00500000 </v>
   <v>       0.00500000 </v>
   <v>       0.00500000 </v>
   <v>       0.00500000 </v>
   <v>       0.00500000 </v>
   <v>       0.00500000 </v>
   <v>       0.00500000 </v>
   <v>       0.00500000 </v>
   <v>       0.00500000 </v>
   <v>       0.00500000 </v>
   <v>       0.00500000 </v>
   <v>       0.00500000 </v>
   <v>       0.00500000 </v>
   <v>       0.00500000 </v>
   <v>       0.00500000 </v>
   <v>       0.00500000 </v>
   <v>       0.00500000 </v>
   <v>       0.00500000 </v>
   <v>       0.00500000 </v>
   <v>       0.00500000 </v>
   <v>       0.00500000 </v>
   <v>       0.00500000 </v>
   <v>       0.00500000 </v>
   <v>       0.00500000 </v>
   <v>       0.00500000 </v>
   <v>       0.00500000 </v>
   <v>       0.00500000 </v>
   <v>       0.00500000 </v>
   <v>       0.00500000 </v>
   <v>       0.00500000 </v>
   <v>       0.00500000 </v>
   <v>       0.00500000 </v>
   <v>       0.00500000 </v>
   <v>       0.00500000 </v>
   <v>       0.00500000 </v>
   <v>       0.00500000 </v>
   <v>       0.00500000 </v>
   <v>       0.00500000 </v>
   <v>       0.00500000 </v>
   <v>       0.00500000 </v>
   <v>       0.00500000 </v>
   <v>       0.00500000 </v>
   <v>       0.00500000 </v>
   <v>       0.00500000 </v>
   <v>       0.00500000 </v>
   <v>       0.00500000 </v>
   <v>       0.00500000 </v>
   <v>       0.00500000 </v>
   <v>       0.00500000 </v>
   <v>       0.00500000 </v>
   <v>       0.00500000 </v>
   <v>       0.00500000 </v>
  </varray>
 </kpoints>
 <parameters>
  <separator name="general" >
   <i type="string" name="SYSTEM">PbTe</i>
   <i type="logical" name="LCOMPAT"> F  </i>
  </separator>
  <separator name="electronic" >
   <i type="string" name="PREC">accura</i>
   <i name="ENMAX">    600.00000000</i>
   <i name="ENAUG">    391.91400000</i>
   <i name="EDIFF">      0.00000010</i>
   <i type="int" name="IALGO">    58</i>
   <i type="int" name="IWAVPR">    10</i>
   <i type="int" name="NBANDS">    60</i>
   <i name="NELECT">     20.00000000</i>
   <i type="int" name="TURBO">     0</i>
   <i type="int" name="IRESTART">     0</i>
   <i type="int" name="NREBOOT">     0</i>
   <i type="int" name="NMIN">     0</i>
   <i name="EREF">      0.00000000</i>
   <separator name="electronic smearing" >
    <i type="int" name="ISMEAR">     0</i>
    <i name="SIGMA">      0.01000000</i>
    <i name="KSPACING">      0.50000000</i>
    <i type="logical" name="KGAMMA"> T  </i>
   </separator>
   <separator name="electronic projectors" >
    <i type="logical" name="LREAL"> F  </i>
    <v name="ROPT">      0.00000000      0.00000000</v>
    <i type="int" name="LMAXPAW">  -100</i>
    <i type="int" name="LMAXMIX">     4</i>
    <i type="logical" name="NLSPLINE"> F  </i>
   </separator>
   <separator name="electronic startup" >
    <i type="int" name="ISTART">     0</i>
    <i type="int" name="ICHARG">    11</i>
    <i type="int" name="INIWAV">     1</i>
   </separator>
   <separator name="electronic spin" >
    <i type="int" name="ISPIN">     1</i>
    <i type="logical" name="LNONCOLLINEAR"> T  </i>
    <v name="MAGMOM">      1.00000000      1.00000000      1.00000000      1.00000000      1.00000000      1.00000000</v>
    <i name="NUPDOWN">     -1.00000000</i>
    <i type="logical" name="LSORBIT"> T  </i>
    <v name="SAXIS">      0.00000000      0.00000000      1.00000000</v>
    <i type="logical" name="LSPIRAL"> F  </i>
    <v name="QSPIRAL">      0.00000000      0.00000000      0.00000000</v>
    <i type="logical" name="LZEROZ"> F  </i>
   </separator>
   <separator name="electronic exchange-correlation" >
    <i type="logical" name="LASPH"> F  </i>
    <i type="logical" name="LMETAGGA"> F  </i>
   </separator>
   <separator name="electronic convergence" >
    <i type="int" name="NELM">    60</i>
    <i type="int" name="NELMDL">     0</i>
    <i type="int" name="NELMIN">     2</i>
    <i name="ENINI">    600.00000000</i>
    <separator name="electronic convergence detail" >
     <i type="logical" name="LDIAG"> T  </i>
     <i type="logical" name="LSUBROT"> F  </i>
     <i name="WEIMIN">      0.00000000</i>
     <i name="EBREAK">      0.00000000</i>
     <i name="DEPER">      0.30000000</i>
     <i type="int" name="NRMM">     4</i>
     <i name="TIME">      0.40000000</i>
    </separator>
   </separator>
   <separator name="electronic mixer" >
    <i name="AMIX">      0.40000000</i>
    <i name="BMIX">      1.00000000</i>
    <i name="AMIN">      0.10000000</i>
    <i name="AMIX_MAG">      1.60000000</i>
    <i name="BMIX_MAG">      1.00000000</i>
    <separator name="electronic mixer details" >
     <i type="int" name="IMIX">     4</i>
     <i type="logical" name="MIXFIRST"> F  </i>
     <i type="int" name="MAXMIX">   -45</i>
     <i name="WC">    100.00000000</i>
     <i type="int" name="INIMIX">     1</i>
     <i type="int" name="MIXPRE">     1</i>
     <i type="int" name="MREMOVE">     5</i>
    </separator>
   </separator>
   <separator name="electronic dipolcorrection" >
    <i type="logical" name="LDIPOL"> F  </i>
    <i type="logical" name="LMONO"> F  </i>
    <i type="int" name="IDIPOL">     0</i>
    <i name="EPSILON">      1.00000000</i>
    <v name="DIPOL">   -100.00000000   -100.00000000   -100.00000000</v>
    <i name="EFIELD">      0.00000000</i>
   </separator>
  </separator>
  <separator name="grids" >
   <i type="int" name="NGX">    40</i>
   <i type="int" name="NGY">    40</i>
   <i type="int" name="NGZ">    40</i>
   <i type="int" name="NGXF">    80</i>
   <i type="int" name="NGYF">    80</i>
   <i type="int" name="NGZF">    80</i>
   <i type="logical" name="ADDGRID"> T  </i>
  </separator>
  <separator name="ionic" >
   <i type="int" name="NSW">     0</i>
   <i type="int" name="IBRION">    -1</i>
   <i type="int" name="MDALGO">     0</i>
   <i type="int" name="ISIF">     2</i>
   <i name="PSTRESS">      0.00000000</i>
   <i name="EDIFFG">     -0.00100000</i>
   <i type="int" name="NFREE">     0</i>
   <i name="POTIM">      0.50000000</i>
   <i name="SMASS">     -3.00000000</i>
   <i name="SCALEE">      1.00000000</i>
  </separator>
  <separator name="ionic md" >
   <i name="TEBEG">      0.00010000</i>
   <i name="TEEND">      0.00010000</i>
   <i type="int" name="NBLOCK">     1</i>
   <i type="int" name="KBLOCK">     1</i>
   <i type="int" name="NPACO">   256</i>
   <i name="APACO">     16.00000000</i>
  </separator>
  <separator name="symmetry" >
   <i type="int" name="ISYM">    -1</i>
   <i name="SYMPREC">      0.00001000</i>
  </separator>
  <separator name="dos" >
   <i type="int" name="LORBIT">     0</i>
   <v name="RWIGS">     -1.00000000     -1.00000000</v>
   <i type="int" name="NEDOS">   301</i>
   <i name="EMIN">     10.00000000</i>
   <i name="EMAX">    -10.00000000</i>
   <i name="EFERMI">      0.00000000</i>
  </separator>
  <separator name="writing" >
   <i type="int" name="NWRITE">     2</i>
   <i type="logical" name="LWAVE"> F  </i>
   <i type="logical" name="LDOWNSAMPLE"> F  </i>
   <i type="logical" name="LCHARG"> F  </i>
   <i type="logical" name="LPARD"> F  </i>
   <i type="logical" name="LVTOT"> F  </i>
   <i type="logical" name="LVHAR"> F  </i>
   <i type="logical" name="LELF"> F  </i>
   <i type="logical" name="LOPTICS"> F  </i>
   <v name="STM">      0.00000000      0.00000000      0.00000000      0.00000000      0.00000000      0.00000000      0.00000000</v>
  </separator>
  <separator name="performance" >
   <i type="int" name="NPAR">     4</i>
   <i type="int" name="NSIM">     4</i>
   <i type="int" name="NBLK">    -1</i>
   <i type="logical" name="LPLANE"> T  </i>
   <i type="logical" name="LSCALAPACK"> T  </i>
   <i type="logical" name="LSCAAWARE"> F  </i>
   <i type="logical" name="LSCALU"> F  </i>
   <i type="logical" name="LASYNC"> F  </i>
   <i type="logical" name="LORBITALREAL"> F  </i>
  </separator>
  <separator name="miscellaneous" >
   <i type="int" name="IDIOT">     3</i>
   <i type="int" name="ISPECIAL">     0</i>
   <i type="logical" name="LMUSIC"> F  </i>
   <v name="POMASS">    127.60000000    207.20000000</v>
   <v name="DARWINR">      0.00000000      0.00000000</v>
   <v name="DARWINV">      1.00000000      1.00000000</v>
   <i type="logical" name="LCORR"> T  </i>
  </separator>
  <i type="logical" name="GGA_COMPAT"> F  </i>
  <i type="logical" name="LBERRY"> F  </i>
  <i type="int" name="ICORELEVEL">     0</i>
  <i type="logical" name="LDAU"> F  </i>
  <i type="int" name="I_CONSTRAINED_M">     0</i>
  <separator name="electronic exchange-correlation" >
   <i type="string" name="GGA">--</i>
   <i type="int" name="VOSKOWN">     0</i>
   <i type="logical" name="LHFCALC"> F  </i>
   <i type="string" name="PRECFOCK"></i>
   <i type="logical" name="LSYMGRAD"> F  </i>
   <i type="logical" name="LHFONE"> F  </i>
   <i type="logical" name="LRHFCALC"> F  </i>
   <i type="logical" name="LTHOMAS"> F  </i>
   <i type="logical" name="LMODELHF"> F  </i>
   <i name="ENCUT4O">     -1.00000000</i>
   <i type="int" name="EXXOEP">     0</i>
   <i type="int" name="FOURORBIT">     0</i>
   <i name="AEXX">      0.00000000</i>
   <i name="HFALPHA">      0.00000000</i>
   <i name="MCALPHA">      0.00000000</i>
   <i name="ALDAX">      1.00000000</i>
   <i name="AGGAX">      1.00000000</i>
   <i name="ALDAC">      1.00000000</i>
   <i name="AGGAC">      1.00000000</i>
   <i type="int" name="NKREDX">     1</i>
   <i type="int" name="NKREDY">     1</i>
   <i type="int" name="NKREDZ">     1</i>
   <i type="logical" name="SHIFTRED"> F  </i>
   <i type="logical" name="ODDONLY"> F  </i>
   <i type="logical" name="EVENONLY"> F  </i>
   <i type="int" name="LMAXFOCK">     0</i>
   <i type="int" name="NMAXFOCKAE">     0</i>
   <i type="logical" name="LFOCKAEDFT"> F  </i>
   <i name="HFSCREEN">      0.00000000</i>
   <i name="HFSCREENC">      0.00000000</i>
   <i type="int" name="NBANDSGWLOW">     0</i>
  </separator>
  <separator name="vdW DFT" >
   <i type="logical" name="LUSE_VDW"> F  </i>
   <i name="Zab_VDW">     -0.84910000</i>
   <i name="PARAM1">      0.12340000</i>
   <i name="PARAM2">      1.00000000</i>
   <i name="PARAM3">      0.00000000</i>
  </separator>
  <separator name="model GW" >
   <i type="int" name="MODEL_GW">     0</i>
   <i name="MODEL_EPS0">     21.25614323</i>
   <i name="MODEL_ALPHA">      1.00000000</i>
  </separator>
  <separator name="linear response parameters" >
   <i type="logical" name="LEPSILON"> F  </i>
   <i type="logical" name="LRPA"> F  </i>
   <i type="logical" name="LNABLA"> F  </i>
   <i type="logical" name="LVEL"> F  </i>
   <i type="int" name="KINTER">     0</i>
   <i name="CSHIFT">      0.10000000</i>
   <i name="OMEGAMAX">     -1.00000000</i>
   <i name="DEG_THRESHOLD">      0.00200000</i>
   <i name="RTIME">     -0.10000000</i>
   <i name="WPLASMAI">      0.00000000</i>
   <v name="DFIELD">      0.00000000      0.00000000      0.00000000</v>
   <v name="WPLASMA">      0.00000000      0.00000000      0.00000000      0.00000000      0.00000000      0.00000000      0.00000000      0.00000000      0.00000000</v>
  </separator>
  <separator name="orbital magnetization" >
   <i type="logical" name="NUCIND"> F  </i>
   <v name="MAGPOS">      0.00000000      0.00000000      0.00000000</v>
   <i type="logical" name="LNICSALL"> T  </i>
   <i type="logical" name="ORBITALMAG"> F  </i>
   <i type="logical" name="LMAGBLOCH"> F  </i>
   <i type="logical" name="LCHIMAG"> F  </i>
   <i type="logical" name="LGAUGE"> T  </i>
   <i type="int" name="MAGATOM">     0</i>
   <v name="MAGDIPOL">      0.00000000      0.00000000      0.00000000</v>
   <v name="AVECCONST">      0.00000000      0.00000000      0.00000000</v>
  </separator>
  <separator name="response functions" >
   <i type="logical" name="LADDER"> F  </i>
   <i type="logical" name="LRPAFORCE"> F  </i>
   <i type="logical" name="LFXC"> F  </i>
   <i type="logical" name="LHARTREE"> T  </i>
   <i type="int" name="IBSE">     0</i>
   <v type="int" name="KPOINT">    -1     0     0     0</v>
   <i type="logical" name="LTCTE"> F  </i>
   <i type="logical" name="LTETE"> F  </i>
   <i type="logical" name="LTRIPLET"> F  </i>
   <i type="logical" name="LFXCEPS"> F  </i>
   <i type="logical" name="LFXHEG"> F  </i>
   <i type="int" name="NATURALO">     2</i>
   <i type="logical" name="L2ORDER"> F  </i>
   <i type="logical" name="LMP2LT"> F  </i>
   <i type="logical" name="LUSEW"> F  </i>
   <i name="ENCUTGW">     -2.00000000</i>
   <i name="ENCUTGWSOFT">     -2.00000000</i>
   <i name="ENCUTLF">     -1.00000000</i>
   <i type="int" name="LMAXMP2">    -1</i>
   <i name="SCISSOR">      0.00000000</i>
   <i type="int" name="NOMEGA">     0</i>
   <i type="int" name="NOMEGAR">     0</i>
   <i type="int" name="NBANDSGW">    -1</i>
   <i type="int" name="NBANDSO">    -1</i>
   <i type="int" name="NBANDSV">    -1</i>
   <i type="int" name="NELM">     1</i>
   <i type="int" name="NELMHF">     1</i>
   <i type="int" name="DIM">     3</i>
   <i type="int" name="ANTIRES">     0</i>
   <i name="OMEGAMAX">    -30.00000000</i>
   <i name="OMEGAMIN">    -30.00000000</i>
   <i name="OMEGATL">   -200.00000000</i>
   <i type="int" name="OMEGAGRID">   140</i>
   <i name="CSHIFT">     -0.10000000</i>
   <i type="logical" name="SELFENERGY"> F  </i>
   <i type="logical" name="LSPECTRAL"> F  </i>
   <i type="logical" name="LSPECTRALGW"> F  </i>
   <i type="logical" name="LSINGLES"> F  </i>
   <i type="logical" name="LFERMIGW"> F  </i>
   <i type="logical" name="ODDONLYGW"> F  </i>
   <i type="logical" name="EVENONLYGW"> F  </i>
   <i type="int" name="NKREDLFX">     1</i>
   <i type="int" name="NKREDLFY">     1</i>
   <i type="int" name="NKREDLFZ">     1</i>
   <i type="int" name="MAXMEM">  2800</i>
   <i type="int" name="TELESCOPE">     0</i>
   <i type="int" name="TAUPAR">     1</i>
   <i type="int" name="OMEGAPAR">    -1</i>
   <i name="LAMBDA">      1.00000000</i>
  </separator>
  <separator name="External order field" >
   <i name="OFIELD_KAPPA">      0.00000000</i>
   <v name="OFIELD_K">      0.00000000      0.00000000      0.00000000</v>
   <i name="OFIELD_Q6_NEAR">      0.00000000</i>
   <i name="OFIELD_Q6_FAR">      0.00000000</i>
   <i name="OFIELD_A">      0.00000000</i>
  </separator>
 </parameters>
 <atominfo>
  <atoms>       2 </atoms>
  <types>       2 </types>
  <array name="atoms" >
   <dimension dim="1">ion</dimension>
   <field type="string">element</field>
   <field type="int">atomtype</field>
   <set>
    <rc><c>Te</c><c>   1</c></rc>
    <rc><c>Pb</c><c>   2</c></rc>
   </set>
  </array>
  <array name="atomtypes" >
   <dimension dim="1">type</dimension>
   <field type="int">atomspertype</field>
   <field type="string">element</field>
   <field>mass</field>
   <field>valence</field>
   <field type="string">pseudopotential</field>
   <set>
    <rc><c>   1</c><c>Te</c><c>    127.60000000</c><c>      6.00000000</c><c>  PAW_PBE Te 08Apr2002                  </c></rc>
    <rc><c>   1</c><c>Pb</c><c>    207.20000000</c><c>     14.00000000</c><c>  PAW_PBE Pb_d 06Sep2000                </c></rc>
   </set>
  </array>
 </atominfo>
 <structure name="initialpos" >
  <crystal>
   <varray name="basis" >
    <v>       0.00000000       3.28431199       3.28431199 </v>
    <v>       3.28431199       0.00000000       3.28431199 </v>
    <v>       3.28431199       3.28431199       0.00000000 </v>
   </varray>
   <i name="volume">     70.85381075 </i>
   <varray name="rec_basis" >
    <v>      -0.15223889       0.15223889       0.15223889 </v>
    <v>       0.15223889      -0.15223889       0.15223889 </v>
    <v>       0.15223889       0.15223889      -0.15223889 </v>
   </varray>
  </crystal>
  <varray name="positions" >
   <v>       0.00000000       0.00000000       0.00000000 </v>
   <v>       0.50000000       0.50000000       0.50000000 </v>
  </varray>
 </structure>
 <calculation>
  <scstep>
   <time name="total">   40.58   42.08</time>
   <energy>
    <i name="alphaZ">     34.30176334 </i>
    <i name="ewald">  -1366.58178547 </i>
    <i name="hartreedc">   -513.40574798 </i>
    <i name="XCdc">      9.71753223 </i>
    <i name="pawpsdc">   1878.37875726 </i>
    <i name="pawaedc">  -1823.09045373 </i>
    <i name="eentropy">     -0.00003847 </i>
    <i name="bandstr">    111.72131656 </i>
    <i name="atom">   1884.88874340 </i>
    <i name="e_fr_energy">    215.93008713 </i>
    <i name="e_wo_entrp">    215.93012560 </i>
    <i name="e_0_energy">    215.93010637 </i>
   </energy>
  </scstep>
  <scstep>
   <time name="total">   39.60   40.35</time>
   <energy>
    <i name="e_fr_energy">     20.98587569 </i>
    <i name="e_wo_entrp">     20.98588006 </i>
    <i name="e_0_energy">     20.98587788 </i>
   </energy>
  </scstep>
  <scstep>
   <time name="total">   42.74   43.27</time>
   <energy>
    <i name="e_fr_energy">     -6.50437357 </i>
    <i name="e_wo_entrp">     -6.50437299 </i>
    <i name="e_0_energy">     -6.50437328 </i>
   </energy>
  </scstep>
  <scstep>
   <time name="total">   46.25   47.11</time>
   <energy>
    <i name="e_fr_energy">     -7.88596309 </i>
    <i name="e_wo_entrp">     -7.88596309 </i>
    <i name="e_0_energy">     -7.88596309 </i>
   </energy>
  </scstep>
  <scstep>
   <time name="total">   50.66   51.08</time>
   <energy>
    <i name="e_fr_energy">     -7.94385509 </i>
    <i name="e_wo_entrp">     -7.94385509 </i>
    <i name="e_0_energy">     -7.94385509 </i>
   </energy>
  </scstep>
  <scstep>
   <time name="total">   30.87   31.09</time>
   <energy>
    <i name="e_fr_energy">     -7.94385509 </i>
    <i name="e_wo_entrp">     -7.94385509 </i>
    <i name="e_0_energy">     -7.94385509 </i>
   </energy>
  </scstep>
  <scstep>
   <time name="total">   30.81   31.07</time>
   <energy>
    <i name="e_fr_energy">     -7.94453144 </i>
    <i name="e_wo_entrp">     -7.94453144 </i>
    <i name="e_0_energy">     -7.94453144 </i>
   </energy>
  </scstep>
  <scstep>
   <time name="total">   30.74   31.52</time>
   <energy>
    <i name="e_fr_energy">     -7.94475103 </i>
    <i name="e_wo_entrp">     -7.94475103 </i>
    <i name="e_0_energy">     -7.94475103 </i>
   </energy>
  </scstep>
  <scstep>
   <time name="total">   47.13   51.20</time>
   <energy>
    <i name="e_fr_energy">     -7.94482357 </i>
    <i name="e_wo_entrp">     -7.94482357 </i>
    <i name="e_0_energy">     -7.94482357 </i>
   </energy>
  </scstep>
  <scstep>
   <time name="total">   36.49   39.02</time>
   <energy>
    <i name="e_fr_energy">     -7.94484105 </i>
    <i name="e_wo_entrp">     -7.94484105 </i>
    <i name="e_0_energy">     -7.94484105 </i>
   </energy>
  </scstep>
  <scstep>
   <time name="total">   37.62   44.10</time>
   <energy>
    <i name="e_fr_energy">     -7.94484494 </i>
    <i name="e_wo_entrp">     -7.94484494 </i>
    <i name="e_0_energy">     -7.94484494 </i>
   </energy>
  </scstep>
  <scstep>
   <time name="total">   45.14   49.20</time>
   <energy>
    <i name="e_fr_energy">     -7.94484576 </i>
    <i name="e_wo_entrp">     -7.94484576 </i>
    <i name="e_0_energy">     -7.94484576 </i>
   </energy>
  </scstep>
  <scstep>
   <time name="total">   48.42   49.33</time>
   <energy>
    <i name="e_fr_energy">     -7.94484603 </i>
    <i name="e_wo_entrp">     -7.94484603 </i>
    <i name="e_0_energy">     -7.94484603 </i>
   </energy>
  </scstep>
  <scstep>
   <time name="total">   46.98   52.42</time>
   <energy>
    <i name="alphaZ">     34.30176334 </i>
    <i name="ewald">  -1366.58178547 </i>
    <i name="hartreedc">   -513.40574798 </i>
    <i name="XCdc">      9.71753223 </i>
    <i name="pawpsdc">   1878.37875726 </i>
    <i name="pawaedc">  -1823.09045373 </i>
    <i name="eentropy">     -0.00000000 </i>
    <i name="bandstr">   -112.15365511 </i>
    <i name="atom">   1884.88874340 </i>
    <i name="e_fr_energy">     -7.94484607 </i>
    <i name="e_wo_entrp">     -7.94484607 </i>
    <i name="e_0_energy">     -7.94484607 </i>
   </energy>
  </scstep>
  <structure>
   <crystal>
    <varray name="basis" >
     <v>       0.00000000       3.28431199       3.28431199 </v>
     <v>       3.28431199       0.00000000       3.28431199 </v>
     <v>       3.28431199       3.28431199       0.00000000 </v>
    </varray>
    <i name="volume">     70.85381075 </i>
    <varray name="rec_basis" >
     <v>      -0.15223889       0.15223889       0.15223889 </v>
     <v>       0.15223889      -0.15223889       0.15223889 </v>
     <v>       0.15223889       0.15223889      -0.15223889 </v>
    </varray>
   </crystal>
   <varray name="positions" >
    <v>       0.00000000       0.00000000       0.00000000 </v>
    <v>       0.50000000       0.50000000       0.50000000 </v>
   </varray>
  </structure>
  <varray name="forces" >
   <v>      -0.00000036      -0.00000084      -0.00000106 </v>
   <v>       0.00000036       0.00000084       0.00000106 </v>
  </varray>
  <varray name="stress" >
   <v>     121.42957407     -55.28710310     -43.51279297 </v>
   <v>     -55.28710334     -38.43826942     -26.25412230 </v>
   <v>     -43.51279210     -26.25412476     -51.18364260 </v>
  </varray>
  <energy>
   <i name="e_fr_energy">     -7.94484607 </i>
   <i name="e_wo_entrp">     -7.94484607 </i>
   <i name="e_0_energy">     -0.00000000 </i>
  </energy>
  <time name="totalsc">  602.90  635.60</time>
  <eigenvalues>
   <array>
    <dimension dim="1">band</dimension>
    <dimension dim="2">kpoint</dimension>
    <dimension dim="3">spin</dimension>
    <field>eigene</field>
    <field>occ</field>
    <set>
     <set comment="spin 1">
      <set comment="kpoint 1">
       <r>  -13.0670    1.0000 </r>
       <r>  -13.0670    1.0000 </r>
       <r>  -13.0670    1.0000 </r>
       <r>  -13.0670    1.0000 </r>
       <r>  -10.5113    1.0000 </r>
       <r>  -10.5113    1.0000 </r>
       <r>  -10.5113    1.0000 </r>
       <r>  -10.5113    1.0000 </r>
       <r>  -10.5046    1.0000 </r>
       <r>  -10.5046    1.0000 </r>
       <r>   -6.6308    1.0000 </r>
       <r>   -6.6308    1.0000 </r>
       <r>   -0.6743    1.0000 </r>
       <r>   -0.6743    1.0000 </r>
       <r>    3.0997    1.0000 </r>
       <r>    3.0997    1.0000 </r>
       <r>    4.1360    1.0000 </r>
       <r>    4.1360    1.0000 </r>
       <r>    4.1360    1.0000 </r>
       <r>    4.1360    1.0000 </r>
       <r>    7.6861    0.0000 </r>
       <r>    7.6861    0.0000 </r>
       <r>    9.6349    0.0000 </r>
       <r>    9.6349    0.0000 </r>
       <r>    9.6349    0.0000 </r>
       <r>    9.6349    0.0000 </r>
       <r>   10.8709    0.0000 </r>
       <r>   10.8709    0.0000 </r>
       <r>   10.8709    0.0000 </r>
       <r>   10.8709    0.0000 </r>
       <r>   11.0028    0.0000 </r>
       <r>   11.0029    0.0000 </r>
       <r>   12.4260    0.0000 </r>
       <r>   12.4260    0.0000 </r>
       <r>   12.5455    0.0000 </r>
       <r>   12.5455    0.0000 </r>
       <r>   12.9850    0.0000 </r>
       <r>   12.9850    0.0000 </r>
       <r>   12.9850    0.0000 </r>
       <r>   12.9850    0.0000 </r>
       <r>   23.3424    0.0000 </r>
       <r>   23.3424    0.0000 </r>
       <r>   23.3424    0.0000 </r>
       <r>   23.3424    0.0000 </r>
       <r>   23.3424    0.0000 </r>
       <r>   23.3425    0.0000 </r>
       <r>   23.4576    0.0000 </r>
       <r>   23.4578    0.0000 </r>
       <r>   24.4056    0.0000 </r>
       <r>   24.4056    0.0000 </r>
       <r>   24.4074    0.0000 </r>
       <r>   24.4171    0.0000 </r>
       <r>   24.7694    0.0000 </r>
       <r>   24.7694    0.0000 </r>
       <r>   24.7698    0.0000 </r>
       <r>   24.7817    0.0000 </r>
       <r>   25.1677    0.0000 </r>
       <r>   25.1717    0.0000 </r>
       <r>   26.1807    0.0000 </r>
       <r>   26.1888    0.0000 </r>
      </set>
      <set comment="kpoint 2">
       <r>  -13.0670    1.0000 </r>
       <r>  -13.0670    1.0000 </r>
       <r>  -13.0670    1.0000 </r>
       <r>  -13.0670    1.0000 </r>
       <r>  -10.5113    1.0000 </r>
       <r>  -10.5113    1.0000 </r>
       <r>  -10.5113    1.0000 </r>
       <r>  -10.5113    1.0000 </r>
       <r>  -10.5045    1.0000 </r>
       <r>  -10.5045    1.0000 </r>
       <r>   -6.6277    1.0000 </r>
       <r>   -6.6277    1.0000 </r>
       <r>   -0.6845    1.0000 </r>
       <r>   -0.6845    1.0000 </r>
       <r>    3.1029    1.0000 </r>
       <r>    3.1029    1.0000 </r>
       <r>    4.1308    1.0000 </r>
       <r>    4.1308    1.0000 </r>
       <r>    4.1455    1.0000 </r>
       <r>    4.1455    1.0000 </r>
       <r>    7.6730    0.0000 </r>
       <r>    7.6730    0.0000 </r>
       <r>    9.5879    0.0000 </r>
       <r>    9.5879    0.0000 </r>
       <r>    9.6323    0.0000 </r>
       <r>    9.6323    0.0000 </r>
       <r>   10.8581    0.0000 </r>
       <r>   10.8581    0.0000 </r>
       <r>   10.8859    0.0000 </r>
       <r>   10.8859    0.0000 </r>
       <r>   11.0093    0.0000 </r>
       <r>   11.0093    0.0000 </r>
       <r>   12.4540    0.0000 </r>
       <r>   12.4540    0.0000 </r>
       <r>   12.5783    0.0000 </r>
       <r>   12.5783    0.0000 </r>
       <r>   12.9881    0.0000 </r>
       <r>   12.9881    0.0000 </r>
       <r>   13.0303    0.0000 </r>
       <r>   13.0303    0.0000 </r>
       <r>   23.2885    0.0000 </r>
       <r>   23.2885    0.0000 </r>
       <r>   23.2980    0.0000 </r>
       <r>   23.2980    0.0000 </r>
       <r>   23.3143    0.0000 </r>
       <r>   23.3144    0.0000 </r>
       <r>   23.4165    0.0000 </r>
       <r>   23.4166    0.0000 </r>
       <r>   24.3010    0.0000 </r>
       <r>   24.3010    0.0000 </r>
       <r>   24.3180    0.0000 </r>
       <r>   24.3181    0.0000 </r>
       <r>   24.8220    0.0000 </r>
       <r>   24.8221    0.0000 </r>
       <r>   24.8792    0.0000 </r>
       <r>   24.8794    0.0000 </r>
       <r>   25.2460    0.0000 </r>
       <r>   25.2485    0.0000 </r>
       <r>   26.2319    0.0000 </r>
       <r>   26.2379    0.0000 </r>
      </set>
      <set comment="kpoint 3">
       <r>  -13.0670    1.0000 </r>
       <r>  -13.0670    1.0000 </r>
       <r>  -13.0670    1.0000 </r>
       <r>  -13.0670    1.0000 </r>
       <r>  -10.5115    1.0000 </r>
       <r>  -10.5115    1.0000 </r>
       <r>  -10.5112    1.0000 </r>
       <r>  -10.5112    1.0000 </r>
       <r>  -10.5044    1.0000 </r>
       <r>  -10.5044    1.0000 </r>
       <r>   -6.6183    1.0000 </r>
       <r>   -6.6183    1.0000 </r>
       <r>   -0.7145    1.0000 </r>
       <r>   -0.7145    1.0000 </r>
       <r>    3.1109    1.0000 </r>
       <r>    3.1109    1.0000 </r>
       <r>    4.1155    1.0000 </r>
       <r>    4.1155    1.0000 </r>
       <r>    4.1749    1.0000 </r>
       <r>    4.1749    1.0000 </r>
       <r>    7.6324    0.0000 </r>
       <r>    7.6324    0.0000 </r>
       <r>    9.4626    0.0000 </r>
       <r>    9.4626    0.0000 </r>
       <r>    9.6253    0.0000 </r>
       <r>    9.6253    0.0000 </r>
       <r>   10.8043    0.0000 </r>
       <r>   10.8043    0.0000 </r>
       <r>   10.9302    0.0000 </r>
       <r>   10.9303    0.0000 </r>
       <r>   11.0483    0.0000 </r>
       <r>   11.0483    0.0000 </r>
       <r>   12.5157    0.0000 </r>
       <r>   12.5157    0.0000 </r>
       <r>   12.6712    0.0000 </r>
       <r>   12.6713    0.0000 </r>
       <r>   12.9973    0.0000 </r>
       <r>   12.9973    0.0000 </r>
       <r>   13.1753    0.0000 </r>
       <r>   13.1753    0.0000 </r>
       <r>   23.1165    0.0000 </r>
       <r>   23.1166    0.0000 </r>
       <r>   23.1387    0.0000 </r>
       <r>   23.1387    0.0000 </r>
       <r>   23.2215    0.0000 </r>
       <r>   23.2215    0.0000 </r>
       <r>   23.3752    0.0000 </r>
       <r>   23.3752    0.0000 </r>
       <r>   24.1353    0.0000 </r>
       <r>   24.1354    0.0000 </r>
       <r>   24.1355    0.0000 </r>
       <r>   24.1355    0.0000 </r>
       <r>   24.8722    0.0000 </r>
       <r>   24.8729    0.0000 </r>
       <r>   25.1127    0.0000 </r>
       <r>   25.1154    0.0000 </r>
       <r>   25.4739    0.0000 </r>
       <r>   25.4895    0.0000 </r>
       <r>   26.3892    0.0000 </r>
       <r>   26.3977    0.0000 </r>
      </set>
      <set comment="kpoint 4">
       <r>  -13.0670    1.0000 </r>
       <r>  -13.0670    1.0000 </r>
       <r>  -13.0669    1.0000 </r>
       <r>  -13.0669    1.0000 </r>
       <r>  -10.5117    1.0000 </r>
       <r>  -10.5117    1.0000 </r>
       <r>  -10.5111    1.0000 </r>
       <r>  -10.5111    1.0000 </r>
       <r>  -10.5042    1.0000 </r>
       <r>  -10.5042    1.0000 </r>
       <r>   -6.6025    1.0000 </r>
       <r>   -6.6025    1.0000 </r>
       <r>   -0.7627    1.0000 </r>
       <r>   -0.7627    1.0000 </r>
       <r>    3.1197    1.0000 </r>
       <r>    3.1197    1.0000 </r>
       <r>    4.0903    1.0000 </r>
       <r>    4.0903    1.0000 </r>
       <r>    4.2257    1.0000 </r>
       <r>    4.2257    1.0000 </r>
       <r>    7.5600    0.0000 </r>
       <r>    7.5600    0.0000 </r>
       <r>    9.2948    0.0000 </r>
       <r>    9.2948    0.0000 </r>
       <r>    9.6164    0.0000 </r>
       <r>    9.6164    0.0000 </r>
       <r>   10.7096    0.0000 </r>
       <r>   10.7096    0.0000 </r>
       <r>   11.0024    0.0000 </r>
       <r>   11.0024    0.0000 </r>
       <r>   11.1290    0.0000 </r>
       <r>   11.1290    0.0000 </r>
       <r>   12.5767    0.0000 </r>
       <r>   12.5767    0.0000 </r>
       <r>   12.8121    0.0000 </r>
       <r>   12.8121    0.0000 </r>
       <r>   13.0127    0.0000 </r>
       <r>   13.0127    0.0000 </r>
       <r>   13.4247    0.0000 </r>
       <r>   13.4247    0.0000 </r>
       <r>   22.8512    0.0000 </r>
       <r>   22.8512    0.0000 </r>
       <r>   22.9193    0.0000 </r>
       <r>   22.9193    0.0000 </r>
       <r>   23.0520    0.0000 </r>
       <r>   23.0520    0.0000 </r>
       <r>   23.3194    0.0000 </r>
       <r>   23.3195    0.0000 </r>
       <r>   23.9300    0.0000 </r>
       <r>   23.9301    0.0000 </r>
       <r>   24.0152    0.0000 </r>
       <r>   24.0159    0.0000 </r>
       <r>   24.8990    0.0000 </r>
       <r>   24.9010    0.0000 </r>
       <r>   25.3926    0.0000 </r>
       <r>   25.4094    0.0000 </r>
       <r>   25.7500    0.0000 </r>
       <r>   25.7847    0.0000 </r>
       <r>   26.5549    0.0000 </r>
       <r>   26.6330    0.0000 </r>
      </set>
      <set comment="kpoint 5">
       <r>  -13.0670    1.0000 </r>
       <r>  -13.0670    1.0000 </r>
       <r>  -13.0669    1.0000 </r>
       <r>  -13.0669    1.0000 </r>
       <r>  -10.5120    1.0000 </r>
       <r>  -10.5120    1.0000 </r>
       <r>  -10.5110    1.0000 </r>
       <r>  -10.5110    1.0000 </r>
       <r>  -10.5039    1.0000 </r>
       <r>  -10.5039    1.0000 </r>
       <r>   -6.5805    1.0000 </r>
       <r>   -6.5805    1.0000 </r>
       <r>   -0.8264    1.0000 </r>
       <r>   -0.8264    1.0000 </r>
       <r>    3.1243    1.0000 </r>
       <r>    3.1243    1.0000 </r>
       <r>    4.0559    1.0000 </r>
       <r>    4.0559    1.0000 </r>
       <r>    4.2990    1.0000 </r>
       <r>    4.2990    1.0000 </r>
       <r>    7.4507    0.0000 </r>
       <r>    7.4507    0.0000 </r>
       <r>    9.1211    0.0000 </r>
       <r>    9.1211    0.0000 </r>
       <r>    9.6086    0.0000 </r>
       <r>    9.6086    0.0000 </r>
       <r>   10.5903    0.0000 </r>
       <r>   10.5903    0.0000 </r>
       <r>   11.1007    0.0000 </r>
       <r>   11.1008    0.0000 </r>
       <r>   11.2436    0.0000 </r>
       <r>   11.2436    0.0000 </r>
       <r>   12.6282    0.0000 </r>
       <r>   12.6282    0.0000 </r>
       <r>   12.9869    0.0000 </r>
       <r>   12.9869    0.0000 </r>
       <r>   13.0360    0.0000 </r>
       <r>   13.0361    0.0000 </r>
       <r>   13.7587    0.0000 </r>
       <r>   13.7587    0.0000 </r>
       <r>   22.5522    0.0000 </r>
       <r>   22.5522    0.0000 </r>
       <r>   22.6555    0.0000 </r>
       <r>   22.6555    0.0000 </r>
       <r>   22.8154    0.0000 </r>
       <r>   22.8154    0.0000 </r>
       <r>   23.1864    0.0000 </r>
       <r>   23.1864    0.0000 </r>
       <r>   23.7723    0.0000 </r>
       <r>   23.7723    0.0000 </r>
       <r>   23.9542    0.0000 </r>
       <r>   23.9542    0.0000 </r>
       <r>   24.9185    0.0000 </r>
       <r>   24.9186    0.0000 </r>
       <r>   25.6865    0.0000 </r>
       <r>   25.7052    0.0000 </r>
       <r>   26.0689    0.0000 </r>
       <r>   26.0879    0.0000 </r>
       <r>   26.6226    0.0000 </r>
       <r>   26.8226    0.0000 </r>
      </set>
      <set comment="kpoint 6">
       <r>  -13.0670    1.0000 </r>
       <r>  -13.0670    1.0000 </r>
       <r>  -13.0668    1.0000 </r>
       <r>  -13.0668    1.0000 </r>
       <r>  -10.5124    1.0000 </r>
       <r>  -10.5124    1.0000 </r>
       <r>  -10.5108    1.0000 </r>
       <r>  -10.5108    1.0000 </r>
       <r>  -10.5035    1.0000 </r>
       <r>  -10.5035    1.0000 </r>
       <r>   -6.5524    1.0000 </r>
       <r>   -6.5524    1.0000 </r>
       <r>   -0.9027    1.0000 </r>
       <r>   -0.9027    1.0000 </r>
       <r>    3.1204    1.0000 </r>
       <r>    3.1204    1.0000 </r>
       <r>    4.0129    1.0000 </r>
       <r>    4.0129    1.0000 </r>
       <r>    4.3933    1.0000 </r>
       <r>    4.3934    1.0000 </r>
       <r>    7.3022    0.0000 </r>
       <r>    7.3022    0.0000 </r>
       <r>    8.9688    0.0000 </r>
       <r>    8.9688    0.0000 </r>
       <r>    9.6049    0.0000 </r>
       <r>    9.6049    0.0000 </r>
       <r>   10.4582    0.0000 </r>
       <r>   10.4582    0.0000 </r>
       <r>   11.2237    0.0000 </r>
       <r>   11.2237    0.0000 </r>
       <r>   11.3859    0.0000 </r>
       <r>   11.3859    0.0000 </r>
       <r>   12.6750    0.0000 </r>
       <r>   12.6751    0.0000 </r>
       <r>   13.0596    0.0000 </r>
       <r>   13.0596    0.0000 </r>
       <r>   13.1942    0.0000 </r>
       <r>   13.1942    0.0000 </r>
       <r>   14.1513    0.0000 </r>
       <r>   14.1513    0.0000 </r>
       <r>   22.2389    0.0000 </r>
       <r>   22.2389    0.0000 </r>
       <r>   22.3653    0.0000 </r>
       <r>   22.3653    0.0000 </r>
       <r>   22.5365    0.0000 </r>
       <r>   22.5365    0.0000 </r>
       <r>   22.9474    0.0000 </r>
       <r>   22.9474    0.0000 </r>
       <r>   23.7037    0.0000 </r>
       <r>   23.7037    0.0000 </r>
       <r>   23.9359    0.0000 </r>
       <r>   23.9360    0.0000 </r>
       <r>   24.9365    0.0000 </r>
       <r>   24.9366    0.0000 </r>
       <r>   25.9729    0.0000 </r>
       <r>   26.0192    0.0000 </r>
       <r>   26.3568    0.0000 </r>
       <r>   26.5324    0.0000 </r>
       <r>   26.8423    0.0000 </r>
       <r>   27.0489    0.0000 </r>
      </set>
      <set comment="kpoint 7">
       <r>  -13.0670    1.0000 </r>
       <r>  -13.0670    1.0000 </r>
       <r>  -13.0667    1.0000 </r>
       <r>  -13.0667    1.0000 </r>
       <r>  -10.5130    1.0000 </r>
       <r>  -10.5130    1.0000 </r>
       <r>  -10.5107    1.0000 </r>
       <r>  -10.5107    1.0000 </r>
       <r>  -10.5031    1.0000 </r>
       <r>  -10.5031    1.0000 </r>
       <r>   -6.5182    1.0000 </r>
       <r>   -6.5182    1.0000 </r>
       <r>   -0.9885    1.0000 </r>
       <r>   -0.9885    1.0000 </r>
       <r>    3.1054    1.0000 </r>
       <r>    3.1054    1.0000 </r>
       <r>    3.9623    1.0000 </r>
       <r>    3.9623    1.0000 </r>
       <r>    4.5030    1.0000 </r>
       <r>    4.5030    1.0000 </r>
       <r>    7.1205    0.0000 </r>
       <r>    7.1205    0.0000 </r>
       <r>    8.8522    0.0000 </r>
       <r>    8.8522    0.0000 </r>
       <r>    9.6075    0.0000 </r>
       <r>    9.6075    0.0000 </r>
       <r>   10.3203    0.0000 </r>
       <r>   10.3203    0.0000 </r>
       <r>   11.3696    0.0000 </r>
       <r>   11.3696    0.0000 </r>
       <r>   11.5515    0.0000 </r>
       <r>   11.5515    0.0000 </r>
       <r>   12.7222    0.0000 </r>
       <r>   12.7222    0.0000 </r>
       <r>   13.0935    0.0000 </r>
       <r>   13.0935    0.0000 </r>
       <r>   13.4176    0.0000 </r>
       <r>   13.4176    0.0000 </r>
       <r>   14.5835    0.0000 </r>
       <r>   14.5835    0.0000 </r>
       <r>   21.9200    0.0000 </r>
       <r>   21.9200    0.0000 </r>
       <r>   22.0602    0.0000 </r>
       <r>   22.0602    0.0000 </r>
       <r>   22.2355    0.0000 </r>
       <r>   22.2356    0.0000 </r>
       <r>   22.6413    0.0000 </r>
       <r>   22.6414    0.0000 </r>
       <r>   23.6947    0.0000 </r>
       <r>   23.6948    0.0000 </r>
       <r>   23.9444    0.0000 </r>
       <r>   23.9444    0.0000 </r>
       <r>   24.9553    0.0000 </r>
       <r>   24.9554    0.0000 </r>
       <r>   26.2218    0.0000 </r>
       <r>   26.2726    0.0000 </r>
       <r>   26.6074    0.0000 </r>
       <r>   26.7283    0.0000 </r>
       <r>   26.8235    0.0000 </r>
       <r>   27.6680    0.0000 </r>
      </set>
      <set comment="kpoint 8">
       <r>  -13.0670    1.0000 </r>
       <r>  -13.0670    1.0000 </r>
       <r>  -13.0665    1.0000 </r>
       <r>  -13.0665    1.0000 </r>
       <r>  -10.5136    1.0000 </r>
       <r>  -10.5136    1.0000 </r>
       <r>  -10.5105    1.0000 </r>
       <r>  -10.5105    1.0000 </r>
       <r>  -10.5025    1.0000 </r>
       <r>  -10.5025    1.0000 </r>
       <r>   -6.4780    1.0000 </r>
       <r>   -6.4780    1.0000 </r>
       <r>   -1.0809    1.0000 </r>
       <r>   -1.0809    1.0000 </r>
       <r>    3.0790    1.0000 </r>
       <r>    3.0790    1.0000 </r>
       <r>    3.9049    1.0000 </r>
       <r>    3.9049    1.0000 </r>
       <r>    4.6157    1.0000 </r>
       <r>    4.6158    1.0000 </r>
       <r>    6.9232    0.0000 </r>
       <r>    6.9232    0.0000 </r>
       <r>    8.7737    0.0000 </r>
       <r>    8.7737    0.0000 </r>
       <r>    9.6177    0.0000 </r>
       <r>    9.6177    0.0000 </r>
       <r>   10.1810    0.0000 </r>
       <r>   10.1810    0.0000 </r>
       <r>   11.5366    0.0000 </r>
       <r>   11.5366    0.0000 </r>
       <r>   11.7374    0.0000 </r>
       <r>   11.7374    0.0000 </r>
       <r>   12.7727    0.0000 </r>
       <r>   12.7727    0.0000 </r>
       <r>   13.1330    0.0000 </r>
       <r>   13.1331    0.0000 </r>
       <r>   13.6580    0.0000 </r>
       <r>   13.6580    0.0000 </r>
       <r>   15.0431    0.0000 </r>
       <r>   15.0431    0.0000 </r>
       <r>   21.6002    0.0000 </r>
       <r>   21.6002    0.0000 </r>
       <r>   21.7476    0.0000 </r>
       <r>   21.7476    0.0000 </r>
       <r>   21.9240    0.0000 </r>
       <r>   21.9240    0.0000 </r>
       <r>   22.3055    0.0000 </r>
       <r>   22.3055    0.0000 </r>
       <r>   23.7146    0.0000 </r>
       <r>   23.7146    0.0000 </r>
       <r>   23.9702    0.0000 </r>
       <r>   23.9702    0.0000 </r>
       <r>   24.9755    0.0000 </r>
       <r>   24.9757    0.0000 </r>
       <r>   26.3687    0.0000 </r>
       <r>   26.3846    0.0000 </r>
       <r>   26.7246    0.0000 </r>
       <r>   26.7881    0.0000 </r>
       <r>   26.8599    0.0000 </r>
       <r>   26.9807    0.0000 </r>
      </set>
      <set comment="kpoint 9">
       <r>  -13.0670    1.0000 </r>
       <r>  -13.0670    1.0000 </r>
       <r>  -13.0664    1.0000 </r>
       <r>  -13.0664    1.0000 </r>
       <r>  -10.5145    1.0000 </r>
       <r>  -10.5145    1.0000 </r>
       <r>  -10.5104    1.0000 </r>
       <r>  -10.5104    1.0000 </r>
       <r>  -10.5018    1.0000 </r>
       <r>  -10.5018    1.0000 </r>
       <r>   -6.4319    1.0000 </r>
       <r>   -6.4319    1.0000 </r>
       <r>   -1.1773    1.0000 </r>
       <r>   -1.1773    1.0000 </r>
       <r>    3.0421    1.0000 </r>
       <r>    3.0421    1.0000 </r>
       <r>    3.8420    1.0000 </r>
       <r>    3.8420    1.0000 </r>
       <r>    4.7107    1.0000 </r>
       <r>    4.7107    1.0000 </r>
       <r>    6.7392    0.0000 </r>
       <r>    6.7392    0.0000 </r>
       <r>    8.7289    0.0000 </r>
       <r>    8.7289    0.0000 </r>
       <r>    9.6367    0.0000 </r>
       <r>    9.6367    0.0000 </r>
       <r>   10.0429    0.0000 </r>
       <r>   10.0429    0.0000 </r>
       <r>   11.7229    0.0000 </r>
       <r>   11.7229    0.0000 </r>
       <r>   11.9409    0.0000 </r>
       <r>   11.9409    0.0000 </r>
       <r>   12.8280    0.0000 </r>
       <r>   12.8280    0.0000 </r>
       <r>   13.1785    0.0000 </r>
       <r>   13.1786    0.0000 </r>
       <r>   13.9123    0.0000 </r>
       <r>   13.9123    0.0000 </r>
       <r>   15.5223    0.0000 </r>
       <r>   15.5223    0.0000 </r>
       <r>   21.2824    0.0000 </r>
       <r>   21.2824    0.0000 </r>
       <r>   21.4321    0.0000 </r>
       <r>   21.4321    0.0000 </r>
       <r>   21.6085    0.0000 </r>
       <r>   21.6085    0.0000 </r>
       <r>   21.9574    0.0000 </r>
       <r>   21.9574    0.0000 </r>
       <r>   23.7502    0.0000 </r>
       <r>   23.7502    0.0000 </r>
       <r>   24.0083    0.0000 </r>
       <r>   24.0083    0.0000 </r>
       <r>   24.9978    0.0000 </r>
       <r>   24.9978    0.0000 </r>
       <r>   26.2429    0.0000 </r>
       <r>   26.2785    0.0000 </r>
       <r>   26.7818    0.0000 </r>
       <r>   26.7836    0.0000 </r>
       <r>   27.0244    0.0000 </r>
       <r>   27.7045    0.0000 </r>
      </set>
      <set comment="kpoint 10">
       <r>  -13.0671    1.0000 </r>
       <r>  -13.0671    1.0000 </r>
       <r>  -13.0662    1.0000 </r>
       <r>  -13.0662    1.0000 </r>
       <r>  -10.5154    1.0000 </r>
       <r>  -10.5154    1.0000 </r>
       <r>  -10.5103    1.0000 </r>
       <r>  -10.5103    1.0000 </r>
       <r>  -10.5011    1.0000 </r>
       <r>  -10.5011    1.0000 </r>
       <r>   -6.3802    1.0000 </r>
       <r>   -6.3802    1.0000 </r>
       <r>   -1.2753    1.0000 </r>
       <r>   -1.2753    1.0000 </r>
       <r>    2.9963    1.0000 </r>
       <r>    2.9963    1.0000 </r>
       <r>    3.7744    1.0000 </r>
       <r>    3.7744    1.0000 </r>
       <r>    4.7564    1.0000 </r>
       <r>    4.7564    1.0000 </r>
       <r>    6.6073    0.0000 </r>
       <r>    6.6073    0.0000 </r>
       <r>    8.7114    0.0000 </r>
       <r>    8.7114    0.0000 </r>
       <r>    9.6646    0.0000 </r>
       <r>    9.6646    0.0000 </r>
       <r>    9.9080    0.0000 </r>
       <r>    9.9080    0.0000 </r>
       <r>   11.9268    0.0000 </r>
       <r>   11.9268    0.0000 </r>
       <r>   12.1602    0.0000 </r>
       <r>   12.1602    0.0000 </r>
       <r>   12.8890    0.0000 </r>
       <r>   12.8891    0.0000 </r>
       <r>   13.2300    0.0000 </r>
       <r>   13.2300    0.0000 </r>
       <r>   14.1789    0.0000 </r>
       <r>   14.1789    0.0000 </r>
       <r>   16.0154    0.0000 </r>
       <r>   16.0154    0.0000 </r>
       <r>   20.9686    0.0000 </r>
       <r>   20.9686    0.0000 </r>
       <r>   21.1167    0.0000 </r>
       <r>   21.1168    0.0000 </r>
       <r>   21.2927    0.0000 </r>
       <r>   21.2927    0.0000 </r>
       <r>   21.6055    0.0000 </r>
       <r>   21.6055    0.0000 </r>
       <r>   23.7964    0.0000 </r>
       <r>   23.7964    0.0000 </r>
       <r>   24.0560    0.0000 </r>
       <r>   24.0560    0.0000 </r>
       <r>   25.0218    0.0000 </r>
       <r>   25.0220    0.0000 </r>
       <r>   25.9641    0.0000 </r>
       <r>   25.9894    0.0000 </r>
       <r>   26.7267    0.0000 </r>
       <r>   26.7908    0.0000 </r>
       <r>   27.0524    0.0000 </r>
       <r>   27.9930    0.0000 </r>
      </set>
      <set comment="kpoint 11">
       <r>  -13.0671    1.0000 </r>
       <r>  -13.0671    1.0000 </r>
       <r>  -13.0661    1.0000 </r>
       <r>  -13.0661    1.0000 </r>
       <r>  -10.5165    1.0000 </r>
       <r>  -10.5165    1.0000 </r>
       <r>  -10.5102    1.0000 </r>
       <r>  -10.5102    1.0000 </r>
       <r>  -10.5002    1.0000 </r>
       <r>  -10.5002    1.0000 </r>
       <r>   -6.3231    1.0000 </r>
       <r>   -6.3231    1.0000 </r>
       <r>   -1.3730    1.0000 </r>
       <r>   -1.3730    1.0000 </r>
       <r>    2.9434    1.0000 </r>
       <r>    2.9434    1.0000 </r>
       <r>    3.7035    1.0000 </r>
       <r>    3.7035    1.0000 </r>
       <r>    4.7194    1.0000 </r>
       <r>    4.7194    1.0000 </r>
       <r>    6.5665    0.0000 </r>
       <r>    6.5665    0.0000 </r>
       <r>    8.7155    0.0000 </r>
       <r>    8.7155    0.0000 </r>
       <r>    9.7010    0.0000 </r>
       <r>    9.7010    0.0000 </r>
       <r>    9.7781    0.0000 </r>
       <r>    9.7781    0.0000 </r>
       <r>   12.1466    0.0000 </r>
       <r>   12.1466    0.0000 </r>
       <r>   12.3935    0.0000 </r>
       <r>   12.3935    0.0000 </r>
       <r>   12.9566    0.0000 </r>
       <r>   12.9566    0.0000 </r>
       <r>   13.2875    0.0000 </r>
       <r>   13.2875    0.0000 </r>
       <r>   14.4566    0.0000 </r>
       <r>   14.4568    0.0000 </r>
       <r>   16.5179    0.0000 </r>
       <r>   16.5179    0.0000 </r>
       <r>   20.6604    0.0000 </r>
       <r>   20.6604    0.0000 </r>
       <r>   20.8037    0.0000 </r>
       <r>   20.8037    0.0000 </r>
       <r>   20.9792    0.0000 </r>
       <r>   20.9792    0.0000 </r>
       <r>   21.2551    0.0000 </r>
       <r>   21.2551    0.0000 </r>
       <r>   23.8505    0.0000 </r>
       <r>   23.8505    0.0000 </r>
       <r>   24.1114    0.0000 </r>
       <r>   24.1114    0.0000 </r>
       <r>   25.0478    0.0000 </r>
       <r>   25.0478    0.0000 </r>
       <r>   25.6060    0.0000 </r>
       <r>   25.6074    0.0000 </r>
       <r>   26.5998    0.0000 </r>
       <r>   26.6207    0.0000 </r>
       <r>   26.7051    0.0000 </r>
       <r>   27.0309    0.0000 </r>
      </set>
      <set comment="kpoint 12">
       <r>  -13.0672    1.0000 </r>
       <r>  -13.0672    1.0000 </r>
       <r>  -13.0659    1.0000 </r>
       <r>  -13.0659    1.0000 </r>
       <r>  -10.5177    1.0000 </r>
       <r>  -10.5177    1.0000 </r>
       <r>  -10.5101    1.0000 </r>
       <r>  -10.5101    1.0000 </r>
       <r>  -10.4993    1.0000 </r>
       <r>  -10.4993    1.0000 </r>
       <r>   -6.2609    1.0000 </r>
       <r>   -6.2609    1.0000 </r>
       <r>   -1.4688    1.0000 </r>
       <r>   -1.4688    1.0000 </r>
       <r>    2.8853    1.0000 </r>
       <r>    2.8853    1.0000 </r>
       <r>    3.6301    1.0000 </r>
       <r>    3.6301    1.0000 </r>
       <r>    4.5877    1.0000 </r>
       <r>    4.5877    1.0000 </r>
       <r>    6.6320    0.0000 </r>
       <r>    6.6320    0.0000 </r>
       <r>    8.7371    0.0000 </r>
       <r>    8.7371    0.0000 </r>
       <r>    9.6500    0.0000 </r>
       <r>    9.6500    0.0000 </r>
       <r>    9.7495    0.0000 </r>
       <r>    9.7495    0.0000 </r>
       <r>   12.3808    0.0000 </r>
       <r>   12.3808    0.0000 </r>
       <r>   12.6393    0.0000 </r>
       <r>   12.6393    0.0000 </r>
       <r>   13.0310    0.0000 </r>
       <r>   13.0310    0.0000 </r>
       <r>   13.3509    0.0000 </r>
       <r>   13.3510    0.0000 </r>
       <r>   14.7445    0.0000 </r>
       <r>   14.7445    0.0000 </r>
       <r>   17.0251    0.0000 </r>
       <r>   17.0251    0.0000 </r>
       <r>   20.3593    0.0000 </r>
       <r>   20.3593    0.0000 </r>
       <r>   20.4944    0.0000 </r>
       <r>   20.4944    0.0000 </r>
       <r>   20.6698    0.0000 </r>
       <r>   20.6698    0.0000 </r>
       <r>   20.9102    0.0000 </r>
       <r>   20.9102    0.0000 </r>
       <r>   23.9110    0.0000 </r>
       <r>   23.9110    0.0000 </r>
       <r>   24.1734    0.0000 </r>
       <r>   24.1735    0.0000 </r>
       <r>   25.0751    0.0000 </r>
       <r>   25.0752    0.0000 </r>
       <r>   25.2028    0.0000 </r>
       <r>   25.2055    0.0000 </r>
       <r>   26.3735    0.0000 </r>
       <r>   26.3960    0.0000 </r>
       <r>   26.4606    0.0000 </r>
       <r>   26.9992    0.0000 </r>
      </set>
      <set comment="kpoint 13">
       <r>  -13.0673    1.0000 </r>
       <r>  -13.0673    1.0000 </r>
       <r>  -13.0657    1.0000 </r>
       <r>  -13.0657    1.0000 </r>
       <r>  -10.5191    1.0000 </r>
       <r>  -10.5191    1.0000 </r>
       <r>  -10.5100    1.0000 </r>
       <r>  -10.5100    1.0000 </r>
       <r>  -10.4983    1.0000 </r>
       <r>  -10.4983    1.0000 </r>
       <r>   -6.1940    1.0000 </r>
       <r>   -6.1940    1.0000 </r>
       <r>   -1.5613    1.0000 </r>
       <r>   -1.5613    1.0000 </r>
       <r>    2.8234    1.0000 </r>
       <r>    2.8234    1.0000 </r>
       <r>    3.5553    1.0000 </r>
       <r>    3.5553    1.0000 </r>
       <r>    4.3799    1.0000 </r>
       <r>    4.3799    1.0000 </r>
       <r>    6.7873    0.0000 </r>
       <r>    6.7873    0.0000 </r>
       <r>    8.7734    0.0000 </r>
       <r>    8.7734    0.0000 </r>
       <r>    9.5303    0.0000 </r>
       <r>    9.5303    0.0000 </r>
       <r>    9.8035    0.0000 </r>
       <r>    9.8035    0.0000 </r>
       <r>   12.6275    0.0000 </r>
       <r>   12.6275    0.0000 </r>
       <r>   12.8963    0.0000 </r>
       <r>   12.8963    0.0000 </r>
       <r>   13.1130    0.0000 </r>
       <r>   13.1130    0.0000 </r>
       <r>   13.4203    0.0000 </r>
       <r>   13.4204    0.0000 </r>
       <r>   15.0420    0.0000 </r>
       <r>   15.0421    0.0000 </r>
       <r>   17.5309    0.0000 </r>
       <r>   17.5309    0.0000 </r>
       <r>   20.0671    0.0000 </r>
       <r>   20.0671    0.0000 </r>
       <r>   20.1900    0.0000 </r>
       <r>   20.1900    0.0000 </r>
       <r>   20.3659    0.0000 </r>
       <r>   20.3659    0.0000 </r>
       <r>   20.5756    0.0000 </r>
       <r>   20.5756    0.0000 </r>
       <r>   23.9762    0.0000 </r>
       <r>   23.9762    0.0000 </r>
       <r>   24.2409    0.0000 </r>
       <r>   24.2409    0.0000 </r>
       <r>   24.7717    0.0000 </r>
       <r>   24.7718    0.0000 </r>
       <r>   25.1034    0.0000 </r>
       <r>   25.1034    0.0000 </r>
       <r>   26.0725    0.0000 </r>
       <r>   26.0840    0.0000 </r>
       <r>   26.1381    0.0000 </r>
       <r>   26.1506    0.0000 </r>
      </set>
      <set comment="kpoint 14">
       <r>  -13.0674    1.0000 </r>
       <r>  -13.0674    1.0000 </r>
       <r>  -13.0655    1.0000 </r>
       <r>  -13.0655    1.0000 </r>
       <r>  -10.5206    1.0000 </r>
       <r>  -10.5206    1.0000 </r>
       <r>  -10.5099    1.0000 </r>
       <r>  -10.5099    1.0000 </r>
       <r>  -10.4972    1.0000 </r>
       <r>  -10.4972    1.0000 </r>
       <r>   -6.1227    1.0000 </r>
       <r>   -6.1227    1.0000 </r>
       <r>   -1.6493    1.0000 </r>
       <r>   -1.6493    1.0000 </r>
       <r>    2.7592    1.0000 </r>
       <r>    2.7592    1.0000 </r>
       <r>    3.4802    1.0000 </r>
       <r>    3.4802    1.0000 </r>
       <r>    4.1242    1.0000 </r>
       <r>    4.1242    1.0000 </r>
       <r>    7.0045    0.0000 </r>
       <r>    7.0045    0.0000 </r>
       <r>    8.8223    0.0000 </r>
       <r>    8.8223    0.0000 </r>
       <r>    9.4161    0.0000 </r>
       <r>    9.4161    0.0000 </r>
       <r>    9.8659    0.0000 </r>
       <r>    9.8659    0.0000 </r>
       <r>   12.8843    0.0000 </r>
       <r>   12.8843    0.0000 </r>
       <r>   13.1632    0.0000 </r>
       <r>   13.1632    0.0000 </r>
       <r>   13.2041    0.0000 </r>
       <r>   13.2042    0.0000 </r>
       <r>   13.4958    0.0000 </r>
       <r>   13.4958    0.0000 </r>
       <r>   15.3488    0.0000 </r>
       <r>   15.3489    0.0000 </r>
       <r>   18.0243    0.0000 </r>
       <r>   18.0243    0.0000 </r>
       <r>   19.7862    0.0000 </r>
       <r>   19.7862    0.0000 </r>
       <r>   19.8913    0.0000 </r>
       <r>   19.8913    0.0000 </r>
       <r>   20.0688    0.0000 </r>
       <r>   20.0688    0.0000 </r>
       <r>   20.2596    0.0000 </r>
       <r>   20.2596    0.0000 </r>
       <r>   24.0410    0.0000 </r>
       <r>   24.0411    0.0000 </r>
       <r>   24.3129    0.0000 </r>
       <r>   24.3130    0.0000 </r>
       <r>   24.3281    0.0000 </r>
       <r>   24.3282    0.0000 </r>
       <r>   25.1316    0.0000 </r>
       <r>   25.1316    0.0000 </r>
       <r>   25.7365    0.0000 </r>
       <r>   25.7721    0.0000 </r>
       <r>   25.7920    0.0000 </r>
       <r>   25.8005    0.0000 </r>
      </set>
      <set comment="kpoint 15">
       <r>  -13.0676    1.0000 </r>
       <r>  -13.0676    1.0000 </r>
       <r>  -13.0653    1.0000 </r>
       <r>  -13.0653    1.0000 </r>
       <r>  -10.5222    1.0000 </r>
       <r>  -10.5222    1.0000 </r>
       <r>  -10.5099    1.0000 </r>
       <r>  -10.5099    1.0000 </r>
       <r>  -10.4961    1.0000 </r>
       <r>  -10.4961    1.0000 </r>
       <r>   -6.0476    1.0000 </r>
       <r>   -6.0476    1.0000 </r>
       <r>   -1.7319    1.0000 </r>
       <r>   -1.7319    1.0000 </r>
       <r>    2.6940    1.0000 </r>
       <r>    2.6940    1.0000 </r>
       <r>    3.4055    1.0000 </r>
       <r>    3.4055    1.0000 </r>
       <r>    3.8428    1.0000 </r>
       <r>    3.8428    1.0000 </r>
       <r>    7.2611    0.0000 </r>
       <r>    7.2611    0.0000 </r>
       <r>    8.8829    0.0000 </r>
       <r>    8.8829    0.0000 </r>
       <r>    9.3082    0.0000 </r>
       <r>    9.3082    0.0000 </r>
       <r>    9.9354    0.0000 </r>
       <r>    9.9354    0.0000 </r>
       <r>   13.1442    0.0000 </r>
       <r>   13.1442    0.0000 </r>
       <r>   13.3099    0.0000 </r>
       <r>   13.3099    0.0000 </r>
       <r>   13.4380    0.0000 </r>
       <r>   13.4380    0.0000 </r>
       <r>   13.5778    0.0000 </r>
       <r>   13.5779    0.0000 </r>
       <r>   15.6643    0.0000 </r>
       <r>   15.6645    0.0000 </r>
       <r>   18.4759    0.0000 </r>
       <r>   18.4759    0.0000 </r>
       <r>   19.5210    0.0000 </r>
       <r>   19.5210    0.0000 </r>
       <r>   19.5990    0.0000 </r>
       <r>   19.5990    0.0000 </r>
       <r>   19.7799    0.0000 </r>
       <r>   19.7799    0.0000 </r>
       <r>   19.9852    0.0000 </r>
       <r>   19.9852    0.0000 </r>
       <r>   23.8500    0.0000 </r>
       <r>   23.8500    0.0000 </r>
       <r>   24.1358    0.0000 </r>
       <r>   24.1359    0.0000 </r>
       <r>   24.3881    0.0000 </r>
       <r>   24.3882    0.0000 </r>
       <r>   25.1573    0.0000 </r>
       <r>   25.1575    0.0000 </r>
       <r>   25.3710    0.0000 </r>
       <r>   25.3742    0.0000 </r>
       <r>   25.4394    0.0000 </r>
       <r>   25.4430    0.0000 </r>
      </set>
      <set comment="kpoint 16">
       <r>  -13.0677    1.0000 </r>
       <r>  -13.0677    1.0000 </r>
       <r>  -13.0651    1.0000 </r>
       <r>  -13.0651    1.0000 </r>
       <r>  -10.5240    1.0000 </r>
       <r>  -10.5240    1.0000 </r>
       <r>  -10.5098    1.0000 </r>
       <r>  -10.5098    1.0000 </r>
       <r>  -10.4950    1.0000 </r>
       <r>  -10.4950    1.0000 </r>
       <r>   -5.9694    1.0000 </r>
       <r>   -5.9694    1.0000 </r>
       <r>   -1.8083    1.0000 </r>
       <r>   -1.8083    1.0000 </r>
       <r>    2.6289    1.0000 </r>
       <r>    2.6289    1.0000 </r>
       <r>    3.3322    1.0000 </r>
       <r>    3.3322    1.0000 </r>
       <r>    3.5499    1.0000 </r>
       <r>    3.5499    1.0000 </r>
       <r>    7.5414    0.0000 </r>
       <r>    7.5414    0.0000 </r>
       <r>    8.9552    0.0000 </r>
       <r>    8.9552    0.0000 </r>
       <r>    9.2066    0.0000 </r>
       <r>    9.2066    0.0000 </r>
       <r>   10.0111    0.0000 </r>
       <r>   10.0111    0.0000 </r>
       <r>   13.3579    0.0000 </r>
       <r>   13.3579    0.0000 </r>
       <r>   13.4788    0.0000 </r>
       <r>   13.4789    0.0000 </r>
       <r>   13.6578    0.0000 </r>
       <r>   13.6579    0.0000 </r>
       <r>   13.7282    0.0000 </r>
       <r>   13.7282    0.0000 </r>
       <r>   15.9884    0.0000 </r>
       <r>   15.9884    0.0000 </r>
       <r>   18.7878    0.0000 </r>
       <r>   18.7878    0.0000 </r>
       <r>   19.2800    0.0000 </r>
       <r>   19.2800    0.0000 </r>
       <r>   19.3138    0.0000 </r>
       <r>   19.3138    0.0000 </r>
       <r>   19.5004    0.0000 </r>
       <r>   19.5004    0.0000 </r>
       <r>   19.8382    0.0000 </r>
       <r>   19.8382    0.0000 </r>
       <r>   23.3993    0.0000 </r>
       <r>   23.3993    0.0000 </r>
       <r>   24.2074    0.0000 </r>
       <r>   24.2075    0.0000 </r>
       <r>   24.4640    0.0000 </r>
       <r>   24.4642    0.0000 </r>
       <r>   24.9883    0.0000 </r>
       <r>   24.9895    0.0000 </r>
       <r>   25.0532    0.0000 </r>
       <r>   25.0566    0.0000 </r>
       <r>   25.1889    0.0000 </r>
       <r>   25.1901    0.0000 </r>
      </set>
      <set comment="kpoint 17">
       <r>  -13.0679    1.0000 </r>
       <r>  -13.0679    1.0000 </r>
       <r>  -13.0649    1.0000 </r>
       <r>  -13.0649    1.0000 </r>
       <r>  -10.5258    1.0000 </r>
       <r>  -10.5258    1.0000 </r>
       <r>  -10.5098    1.0000 </r>
       <r>  -10.5098    1.0000 </r>
       <r>  -10.4939    1.0000 </r>
       <r>  -10.4939    1.0000 </r>
       <r>   -5.8887    1.0000 </r>
       <r>   -5.8887    1.0000 </r>
       <r>   -1.8778    1.0000 </r>
       <r>   -1.8778    1.0000 </r>
       <r>    2.5648    1.0000 </r>
       <r>    2.5648    1.0000 </r>
       <r>    3.2541    1.0000 </r>
       <r>    3.2541    1.0000 </r>
       <r>    3.2609    1.0000 </r>
       <r>    3.2609    1.0000 </r>
       <r>    7.8336    0.0000 </r>
       <r>    7.8336    0.0000 </r>
       <r>    9.0406    0.0000 </r>
       <r>    9.0406    0.0000 </r>
       <r>    9.1117    0.0000 </r>
       <r>    9.1117    0.0000 </r>
       <r>   10.0920    0.0000 </r>
       <r>   10.0920    0.0000 </r>
       <r>   13.4906    0.0000 </r>
       <r>   13.4908    0.0000 </r>
       <r>   13.7446    0.0000 </r>
       <r>   13.7446    0.0000 </r>
       <r>   13.7530    0.0000 </r>
       <r>   13.7531    0.0000 </r>
       <r>   14.0148    0.0000 </r>
       <r>   14.0148    0.0000 </r>
       <r>   16.3206    0.0000 </r>
       <r>   16.3206    0.0000 </r>
       <r>   18.7947    0.0000 </r>
       <r>   18.7947    0.0000 </r>
       <r>   19.0361    0.0000 </r>
       <r>   19.0361    0.0000 </r>
       <r>   19.0538    0.0000 </r>
       <r>   19.0538    0.0000 </r>
       <r>   19.2320    0.0000 </r>
       <r>   19.2320    0.0000 </r>
       <r>   19.9837    0.0000 </r>
       <r>   19.9837    0.0000 </r>
       <r>   22.9589    0.0000 </r>
       <r>   22.9589    0.0000 </r>
       <r>   24.2849    0.0000 </r>
       <r>   24.2852    0.0000 </r>
       <r>   24.5163    0.0000 </r>
       <r>   24.5168    0.0000 </r>
       <r>   24.5943    0.0000 </r>
       <r>   24.5946    0.0000 </r>
       <r>   24.6971    0.0000 </r>
       <r>   24.6973    0.0000 </r>
       <r>   25.2011    0.0000 </r>
       <r>   25.2024    0.0000 </r>
      </set>
      <set comment="kpoint 18">
       <r>  -13.0681    1.0000 </r>
       <r>  -13.0681    1.0000 </r>
       <r>  -13.0647    1.0000 </r>
       <r>  -13.0647    1.0000 </r>
       <r>  -10.5277    1.0000 </r>
       <r>  -10.5277    1.0000 </r>
       <r>  -10.5098    1.0000 </r>
       <r>  -10.5098    1.0000 </r>
       <r>  -10.4927    1.0000 </r>
       <r>  -10.4927    1.0000 </r>
       <r>   -5.8064    1.0000 </r>
       <r>   -5.8064    1.0000 </r>
       <r>   -1.9400    1.0000 </r>
       <r>   -1.9400    1.0000 </r>
       <r>    2.5026    1.0000 </r>
       <r>    2.5026    1.0000 </r>
       <r>    2.9612    1.0000 </r>
       <r>    2.9613    1.0000 </r>
       <r>    3.1924    1.0000 </r>
       <r>    3.1925    1.0000 </r>
       <r>    8.1263    0.0000 </r>
       <r>    8.1263    0.0000 </r>
       <r>    9.0236    0.0000 </r>
       <r>    9.0236    0.0000 </r>
       <r>    9.1428    0.0000 </r>
       <r>    9.1428    0.0000 </r>
       <r>   10.1770    0.0000 </r>
       <r>   10.1770    0.0000 </r>
       <r>   13.6146    0.0000 </r>
       <r>   13.6149    0.0000 </r>
       <r>   13.8507    0.0000 </r>
       <r>   13.8508    0.0000 </r>
       <r>   14.0336    0.0000 </r>
       <r>   14.0338    0.0000 </r>
       <r>   14.3089    0.0000 </r>
       <r>   14.3091    0.0000 </r>
       <r>   16.6608    0.0000 </r>
       <r>   16.6608    0.0000 </r>
       <r>   18.6103    0.0000 </r>
       <r>   18.6103    0.0000 </r>
       <r>   18.7665    0.0000 </r>
       <r>   18.7665    0.0000 </r>
       <r>   18.8101    0.0000 </r>
       <r>   18.8101    0.0000 </r>
       <r>   18.9763    0.0000 </r>
       <r>   18.9763    0.0000 </r>
       <r>   20.3151    0.0000 </r>
[...]
       <r>    16.7965     0.0000     0.0000 </r>
       <r>    16.9470     0.0000     0.0000 </r>
       <r>    17.0976     0.0000     0.0000 </r>
       <r>    17.2482     0.0000     0.0000 </r>
       <r>    17.3987     0.0000     0.0000 </r>
       <r>    17.5493     0.0000     0.0000 </r>
       <r>    17.6999     0.0000     0.0000 </r>
       <r>    17.8504     0.0000     0.0000 </r>
       <r>    18.0010     0.0000     0.0000 </r>
       <r>    18.1516     0.0000     0.0000 </r>
       <r>    18.3021     0.0000     0.0000 </r>
       <r>    18.4527     0.0000     0.0000 </r>
       <r>    18.6033     0.0000     0.0000 </r>
       <r>    18.7538     0.0000     0.0000 </r>
       <r>    18.9044     0.0000     0.0000 </r>
       <r>    19.0549     0.0000     0.0000 </r>
       <r>    19.2055     0.0000     0.0000 </r>
       <r>    19.3561     0.0000     0.0000 </r>
       <r>    19.5066     0.0000     0.0000 </r>
       <r>    19.6572     0.0000     0.0000 </r>
       <r>    19.8078     0.0000     0.0000 </r>
       <r>    19.9583     0.0000     0.0000 </r>
       <r>    20.1089     0.0000     0.0000 </r>
       <r>    20.2595     0.0000     0.0000 </r>
       <r>    20.4100     0.0000     0.0000 </r>
       <r>    20.5606     0.0000     0.0000 </r>
       <r>    20.7111     0.0000     0.0000 </r>
       <r>    20.8617     0.0000     0.0000 </r>
       <r>    21.0123     0.0000     0.0000 </r>
       <r>    21.1628     0.0000     0.0000 </r>
       <r>    21.3134     0.0000     0.0000 </r>
       <r>    21.4640     0.0000     0.0000 </r>
       <r>    21.6145     0.0000     0.0000 </r>
       <r>    21.7651     0.0000     0.0000 </r>
       <r>    21.9157     0.0000     0.0000 </r>
       <r>    22.0662     0.0000     0.0000 </r>
       <r>    22.2168     0.0000     0.0000 </r>
       <r>    22.3674     0.0000     0.0000 </r>
       <r>    22.5179     0.0000     0.0000 </r>
       <r>    22.6685     0.0000     0.0000 </r>
       <r>    22.8190     0.0000     0.0000 </r>
       <r>    22.9696     0.0000     0.0000 </r>
       <r>    23.1202     0.0000     0.0000 </r>
       <r>    23.2707     0.0000     0.0000 </r>
       <r>    23.4213     0.0000     0.0000 </r>
       <r>    23.5719     0.0000     0.0000 </r>
       <r>    23.7224     0.0000     0.0000 </r>
       <r>    23.8730     0.0000     0.0000 </r>
       <r>    24.0236     0.0000     0.0000 </r>
       <r>    24.1741     0.0000     0.0000 </r>
       <r>    24.3247     0.0000     0.0000 </r>
       <r>    24.4752     0.0000     0.0000 </r>
       <r>    24.6258     0.0000     0.0000 </r>
       <r>    24.7764     0.0000     0.0000 </r>
       <r>    24.9269     0.0000     0.0000 </r>
       <r>    25.0775     0.0000     0.0000 </r>
       <r>    25.2281     0.0000     0.0000 </r>
       <r>    25.3786     0.0000     0.0000 </r>
       <r>    25.5292     0.0000     0.0000 </r>
       <r>    25.6798     0.0000     0.0000 </r>
       <r>    25.8303     0.0000     0.0000 </r>
       <r>    25.9809     0.0000     0.0000 </r>
       <r>    26.1315     0.0000     0.0000 </r>
       <r>    26.2820     0.0000     0.0000 </r>
       <r>    26.4326     0.0000     0.0000 </r>
       <r>    26.5831     0.0000     0.0000 </r>
       <r>    26.7337     0.0000     0.0000 </r>
       <r>    26.8843     0.0000     0.0000 </r>
       <r>    27.0348     0.0000     0.0000 </r>
       <r>    27.1854     0.0000     0.0000 </r>
       <r>    27.3360     0.0000     0.0000 </r>
       <r>    27.4865     0.0000     0.0000 </r>
       <r>    27.6371     0.0000     0.0000 </r>
       <r>    27.7877     0.0000     0.0000 </r>
       <r>    27.9382     0.0000     0.0000 </r>
       <r>    28.0888     0.0000     0.0000 </r>
       <r>    28.2393     0.0000     0.0000 </r>
       <r>    28.3899     0.0000     0.0000 </r>
       <r>    28.5405     0.0000     0.0000 </r>
       <r>    28.6910     0.0000     0.0000 </r>
       <r>    28.8416     0.0000     0.0000 </r>
       <r>    28.9922     0.0000     0.0000 </r>
       <r>    29.1427     0.0000     0.0000 </r>
       <r>    29.2933     0.0000     0.0000 </r>
       <r>    29.4439     0.0000     0.0000 </r>
       <r>    29.5944     0.0000     0.0000 </r>
       <r>    29.7450     0.0000     0.0000 </r>
       <r>    29.8956     0.0000     0.0000 </r>
       <r>    30.0461     0.0000     0.0000 </r>
      </set>
      <set comment="spin 4">
       <r>   -15.1231     0.0000     0.0000 </r>
       <r>   -14.9725     0.0000     0.0000 </r>
       <r>   -14.8220     0.0000     0.0000 </r>
       <r>   -14.6714     0.0000     0.0000 </r>
       <r>   -14.5208     0.0000     0.0000 </r>
       <r>   -14.3703     0.0000     0.0000 </r>
       <r>   -14.2197     0.0000     0.0000 </r>
       <r>   -14.0691     0.0000     0.0000 </r>
       <r>   -13.9186     0.0000     0.0000 </r>
       <r>   -13.7680     0.0000     0.0000 </r>
       <r>   -13.6175     0.0000     0.0000 </r>
       <r>   -13.4669     0.0000     0.0000 </r>
       <r>   -13.3163     0.0000     0.0000 </r>
       <r>   -13.1658     0.0000     0.0000 </r>
       <r>   -13.0152     0.0000     0.0000 </r>
       <r>   -12.8646     0.0000     0.0000 </r>
       <r>   -12.7141     0.0000     0.0000 </r>
       <r>   -12.5635     0.0000     0.0000 </r>
       <r>   -12.4129     0.0000     0.0000 </r>
       <r>   -12.2624     0.0000     0.0000 </r>
       <r>   -12.1118     0.0000     0.0000 </r>
       <r>   -11.9612     0.0000     0.0000 </r>
       <r>   -11.8107     0.0000     0.0000 </r>
       <r>   -11.6601     0.0000     0.0000 </r>
       <r>   -11.5096     0.0000     0.0000 </r>
       <r>   -11.3590     0.0000     0.0000 </r>
       <r>   -11.2084     0.0000     0.0000 </r>
       <r>   -11.0579     0.0000     0.0000 </r>
       <r>   -10.9073     0.0000     0.0000 </r>
       <r>   -10.7567     0.0000     0.0000 </r>
       <r>   -10.6062     0.0000     0.0000 </r>
       <r>   -10.4556     0.0000     0.0000 </r>
       <r>   -10.3050     0.0000     0.0000 </r>
       <r>   -10.1545     0.0000     0.0000 </r>
       <r>   -10.0039     0.0000     0.0000 </r>
       <r>    -9.8533     0.0000     0.0000 </r>
       <r>    -9.7028     0.0000     0.0000 </r>
       <r>    -9.5522     0.0000     0.0000 </r>
       <r>    -9.4017     0.0000     0.0000 </r>
       <r>    -9.2511     0.0000     0.0000 </r>
       <r>    -9.1005     0.0000     0.0000 </r>
       <r>    -8.9500     0.0000     0.0000 </r>
       <r>    -8.7994     0.0000     0.0000 </r>
       <r>    -8.6488     0.0000     0.0000 </r>
       <r>    -8.4983     0.0000     0.0000 </r>
       <r>    -8.3477     0.0000     0.0000 </r>
       <r>    -8.1971     0.0000     0.0000 </r>
       <r>    -8.0466     0.0000     0.0000 </r>
       <r>    -7.8960     0.0000     0.0000 </r>
       <r>    -7.7455     0.0000     0.0000 </r>
       <r>    -7.5949     0.0000     0.0000 </r>
       <r>    -7.4443     0.0000     0.0000 </r>
       <r>    -7.2938     0.0000     0.0000 </r>
       <r>    -7.1432     0.0000     0.0000 </r>
       <r>    -6.9926     0.0000     0.0000 </r>
       <r>    -6.8421     0.0000     0.0000 </r>
       <r>    -6.6915     0.0000     0.0000 </r>
       <r>    -6.5409     0.0000     0.0000 </r>
       <r>    -6.3904     0.0000     0.0000 </r>
       <r>    -6.2398     0.0000     0.0000 </r>
       <r>    -6.0892     0.0000     0.0000 </r>
       <r>    -5.9387     0.0000     0.0000 </r>
       <r>    -5.7881     0.0000     0.0000 </r>
       <r>    -5.6376     0.0000     0.0000 </r>
       <r>    -5.4870     0.0000     0.0000 </r>
       <r>    -5.3364     0.0000     0.0000 </r>
       <r>    -5.1859     0.0000     0.0000 </r>
       <r>    -5.0353     0.0000     0.0000 </r>
       <r>    -4.8847     0.0000     0.0000 </r>
       <r>    -4.7342     0.0000     0.0000 </r>
       <r>    -4.5836     0.0000     0.0000 </r>
       <r>    -4.4330     0.0000     0.0000 </r>
       <r>    -4.2825     0.0000     0.0000 </r>
       <r>    -4.1319     0.0000     0.0000 </r>
       <r>    -3.9814     0.0000     0.0000 </r>
       <r>    -3.8308     0.0000     0.0000 </r>
       <r>    -3.6802     0.0000     0.0000 </r>
       <r>    -3.5297     0.0000     0.0000 </r>
       <r>    -3.3791     0.0000     0.0000 </r>
       <r>    -3.2285     0.0000     0.0000 </r>
       <r>    -3.0780     0.0000     0.0000 </r>
       <r>    -2.9274     0.0000     0.0000 </r>
       <r>    -2.7768     0.0000     0.0000 </r>
       <r>    -2.6263     0.0000     0.0000 </r>
       <r>    -2.4757     0.0000     0.0000 </r>
       <r>    -2.3251     0.0000     0.0000 </r>
       <r>    -2.1746     0.0000     0.0000 </r>
       <r>    -2.0240     0.0000     0.0000 </r>
       <r>    -1.8735     0.0000     0.0000 </r>
       <r>    -1.7229     0.0000     0.0000 </r>
       <r>    -1.5723     0.0000     0.0000 </r>
       <r>    -1.4218     0.0000     0.0000 </r>
       <r>    -1.2712     0.0000     0.0000 </r>
       <r>    -1.1206     0.0000     0.0000 </r>
       <r>    -0.9701     0.0000     0.0000 </r>
       <r>    -0.8195     0.0000     0.0000 </r>
       <r>    -0.6689     0.0000     0.0000 </r>
       <r>    -0.5184     0.0000     0.0000 </r>
       <r>    -0.3678     0.0000     0.0000 </r>
       <r>    -0.2173     0.0000     0.0000 </r>
       <r>    -0.0667     0.0000     0.0000 </r>
       <r>     0.0839     0.0000     0.0000 </r>
       <r>     0.2344     0.0000     0.0000 </r>
       <r>     0.3850     0.0000     0.0000 </r>
       <r>     0.5356     0.0000     0.0000 </r>
       <r>     0.6861     0.0000     0.0000 </r>
       <r>     0.8367     0.0000     0.0000 </r>
       <r>     0.9873     0.0000     0.0000 </r>
       <r>     1.1378     0.0000     0.0000 </r>
       <r>     1.2884     0.0000     0.0000 </r>
       <r>     1.4390     0.0000     0.0000 </r>
       <r>     1.5895     0.0000     0.0000 </r>
       <r>     1.7401     0.0000     0.0000 </r>
       <r>     1.8906     0.0000     0.0000 </r>
       <r>     2.0412     0.0000     0.0000 </r>
       <r>     2.1918     0.0000     0.0000 </r>
       <r>     2.3423     0.0000     0.0000 </r>
       <r>     2.4929     0.0000     0.0000 </r>
       <r>     2.6435     0.0000     0.0000 </r>
       <r>     2.7940     0.0000     0.0000 </r>
       <r>     2.9446     0.0000     0.0000 </r>
       <r>     3.0952     0.0000     0.0000 </r>
       <r>     3.2457     0.0000     0.0000 </r>
       <r>     3.3963     0.0000     0.0000 </r>
       <r>     3.5468     0.0000     0.0000 </r>
       <r>     3.6974     0.0000     0.0000 </r>
       <r>     3.8480     0.0000     0.0000 </r>
       <r>     3.9985     0.0000     0.0000 </r>
       <r>     4.1491     0.0000     0.0000 </r>
       <r>     4.2997     0.0000     0.0000 </r>
       <r>     4.4502     0.0000     0.0000 </r>
       <r>     4.6008     0.0000     0.0000 </r>
       <r>     4.7514     0.0000     0.0000 </r>
       <r>     4.9019     0.0000     0.0000 </r>
       <r>     5.0525     0.0000     0.0000 </r>
       <r>     5.2031     0.0000     0.0000 </r>
       <r>     5.3536     0.0000     0.0000 </r>
       <r>     5.5042     0.0000     0.0000 </r>
       <r>     5.6547     0.0000     0.0000 </r>
       <r>     5.8053     0.0000     0.0000 </r>
       <r>     5.9559     0.0000     0.0000 </r>
       <r>     6.1064     0.0000     0.0000 </r>
       <r>     6.2570     0.0000     0.0000 </r>
       <r>     6.4076     0.0000     0.0000 </r>
       <r>     6.5581     0.0000     0.0000 </r>
       <r>     6.7087     0.0000     0.0000 </r>
       <r>     6.8593     0.0000     0.0000 </r>
       <r>     7.0098     0.0000     0.0000 </r>
       <r>     7.1604     0.0000     0.0000 </r>
       <r>     7.3109     0.0000     0.0000 </r>
       <r>     7.4615     0.0000     0.0000 </r>
       <r>     7.6121     0.0000     0.0000 </r>
       <r>     7.7626     0.0000     0.0000 </r>
       <r>     7.9132     0.0000     0.0000 </r>
       <r>     8.0638     0.0000     0.0000 </r>
       <r>     8.2143     0.0000     0.0000 </r>
       <r>     8.3649     0.0000     0.0000 </r>
       <r>     8.5155     0.0000     0.0000 </r>
       <r>     8.6660     0.0000     0.0000 </r>
       <r>     8.8166     0.0000     0.0000 </r>
       <r>     8.9672     0.0000     0.0000 </r>
       <r>     9.1177     0.0000     0.0000 </r>
       <r>     9.2683     0.0000     0.0000 </r>
       <r>     9.4188     0.0000     0.0000 </r>
       <r>     9.5694     0.0000     0.0000 </r>
       <r>     9.7200     0.0000     0.0000 </r>
       <r>     9.8705     0.0000     0.0000 </r>
       <r>    10.0211     0.0000     0.0000 </r>
       <r>    10.1717     0.0000     0.0000 </r>
       <r>    10.3222     0.0000     0.0000 </r>
       <r>    10.4728     0.0000     0.0000 </r>
       <r>    10.6234     0.0000     0.0000 </r>
       <r>    10.7739     0.0000     0.0000 </r>
       <r>    10.9245     0.0000     0.0000 </r>
       <r>    11.0750     0.0000     0.0000 </r>
       <r>    11.2256     0.0000     0.0000 </r>
       <r>    11.3762     0.0000     0.0000 </r>
       <r>    11.5267     0.0000     0.0000 </r>
       <r>    11.6773     0.0000     0.0000 </r>
       <r>    11.8279     0.0000     0.0000 </r>
       <r>    11.9784     0.0000     0.0000 </r>
       <r>    12.1290     0.0000     0.0000 </r>
       <r>    12.2796     0.0000     0.0000 </r>
       <r>    12.4301     0.0000     0.0000 </r>
       <r>    12.5807     0.0000     0.0000 </r>
       <r>    12.7313     0.0000     0.0000 </r>
       <r>    12.8818     0.0000     0.0000 </r>
       <r>    13.0324     0.0000     0.0000 </r>
       <r>    13.1829     0.0000     0.0000 </r>
       <r>    13.3335     0.0000     0.0000 </r>
       <r>    13.4841     0.0000     0.0000 </r>
       <r>    13.6346     0.0000     0.0000 </r>
       <r>    13.7852     0.0000     0.0000 </r>
       <r>    13.9358     0.0000     0.0000 </r>
       <r>    14.0863     0.0000     0.0000 </r>
       <r>    14.2369     0.0000     0.0000 </r>
       <r>    14.3875     0.0000     0.0000 </r>
       <r>    14.5380     0.0000     0.0000 </r>
       <r>    14.6886     0.0000     0.0000 </r>
       <r>    14.8392     0.0000     0.0000 </r>
       <r>    14.9897     0.0000     0.0000 </r>
       <r>    15.1403     0.0000     0.0000 </r>
       <r>    15.2908     0.0000     0.0000 </r>
       <r>    15.4414     0.0000     0.0000 </r>
       <r>    15.5920     0.0000     0.0000 </r>
       <r>    15.7425     0.0000     0.0000 </r>
       <r>    15.8931     0.0000     0.0000 </r>
       <r>    16.0437     0.0000     0.0000 </r>
       <r>    16.1942     0.0000     0.0000 </r>
       <r>    16.3448     0.0000     0.0000 </r>
       <r>    16.4954     0.0000     0.0000 </r>
       <r>    16.6459     0.0000     0.0000 </r>
       <r>    16.7965     0.0000     0.0000 </r>
       <r>    16.9470     0.0000     0.0000 </r>
       <r>    17.0976     0.0000     0.0000 </r>
       <r>    17.2482     0.0000     0.0000 </r>
       <r>    17.3987     0.0000     0.0000 </r>
       <r>    17.5493     0.0000     0.0000 </r>
       <r>    17.6999     0.0000     0.0000 </r>
       <r>    17.8504     0.0000     0.0000 </r>
       <r>    18.0010     0.0000     0.0000 </r>
       <r>    18.1516     0.0000     0.0000 </r>
       <r>    18.3021     0.0000     0.0000 </r>
       <r>    18.4527     0.0000     0.0000 </r>
       <r>    18.6033     0.0000     0.0000 </r>
       <r>    18.7538     0.0000     0.0000 </r>
       <r>    18.9044     0.0000     0.0000 </r>
       <r>    19.0549     0.0000     0.0000 </r>
       <r>    19.2055     0.0000     0.0000 </r>
       <r>    19.3561     0.0000     0.0000 </r>
       <r>    19.5066     0.0000     0.0000 </r>
       <r>    19.6572     0.0000     0.0000 </r>
       <r>    19.8078     0.0000     0.0000 </r>
       <r>    19.9583     0.0000     0.0000 </r>
       <r>    20.1089     0.0000     0.0000 </r>
       <r>    20.2595     0.0000     0.0000 </r>
       <r>    20.4100     0.0000     0.0000 </r>
       <r>    20.5606     0.0000     0.0000 </r>
       <r>    20.7111     0.0000     0.0000 </r>
       <r>    20.8617     0.0000     0.0000 </r>
       <r>    21.0123     0.0000     0.0000 </r>
       <r>    21.1628     0.0000     0.0000 </r>
       <r>    21.3134     0.0000     0.0000 </r>
       <r>    21.4640     0.0000     0.0000 </r>
       <r>    21.6145     0.0000     0.0000 </r>
       <r>    21.7651     0.0000     0.0000 </r>
       <r>    21.9157     0.0000     0.0000 </r>
       <r>    22.0662     0.0000     0.0000 </r>
       <r>    22.2168     0.0000     0.0000 </r>
       <r>    22.3674     0.0000     0.0000 </r>
       <r>    22.5179     0.0000     0.0000 </r>
       <r>    22.6685     0.0000     0.0000 </r>
       <r>    22.8190     0.0000     0.0000 </r>
       <r>    22.9696     0.0000     0.0000 </r>
       <r>    23.1202     0.0000     0.0000 </r>
       <r>    23.2707     0.0000     0.0000 </r>
       <r>    23.4213     0.0000     0.0000 </r>
       <r>    23.5719     0.0000     0.0000 </r>
       <r>    23.7224     0.0000     0.0000 </r>
       <r>    23.8730     0.0000     0.0000 </r>
       <r>    24.0236     0.0000     0.0000 </r>
       <r>    24.1741     0.0000     0.0000 </r>
       <r>    24.3247     0.0000     0.0000 </r>
       <r>    24.4752     0.0000     0.0000 </r>
       <r>    24.6258     0.0000     0.0000 </r>
       <r>    24.7764     0.0000     0.0000 </r>
       <r>    24.9269     0.0000     0.0000 </r>
       <r>    25.0775     0.0000     0.0000 </r>
       <r>    25.2281     0.0000     0.0000 </r>
       <r>    25.3786     0.0000     0.0000 </r>
       <r>    25.5292     0.0000     0.0000 </r>
       <r>    25.6798     0.0000     0.0000 </r>
       <r>    25.8303     0.0000     0.0000 </r>
       <r>    25.9809     0.0000     0.0000 </r>
       <r>    26.1315     0.0000     0.0000 </r>
       <r>    26.2820     0.0000     0.0000 </r>
       <r>    26.4326     0.0000     0.0000 </r>
       <r>    26.5831     0.0000     0.0000 </r>
       <r>    26.7337     0.0000     0.0000 </r>
       <r>    26.8843     0.0000     0.0000 </r>
       <r>    27.0348     0.0000     0.0000 </r>
       <r>    27.1854     0.0000     0.0000 </r>
       <r>    27.3360     0.0000     0.0000 </r>
       <r>    27.4865     0.0000     0.0000 </r>
       <r>    27.6371     0.0000     0.0000 </r>
       <r>    27.7877     0.0000     0.0000 </r>
       <r>    27.9382     0.0000     0.0000 </r>
       <r>    28.0888     0.0000     0.0000 </r>
       <r>    28.2393     0.0000     0.0000 </r>
       <r>    28.3899     0.0000     0.0000 </r>
       <r>    28.5405     0.0000     0.0000 </r>
       <r>    28.6910     0.0000     0.0000 </r>
       <r>    28.8416     0.0000     0.0000 </r>
       <r>    28.9922     0.0000     0.0000 </r>
       <r>    29.1427     0.0000     0.0000 </r>
       <r>    29.2933     0.0000     0.0000 </r>
       <r>    29.4439     0.0000     0.0000 </r>
       <r>    29.5944     0.0000     0.0000 </r>
       <r>    29.7450     0.0000     0.0000 </r>
       <r>    29.8956     0.0000     0.0000 </r>
       <r>    30.0461     0.0000     0.0000 </r>
      </set>
     </set>
    </array>
   </total>
  </dos>
 </calculation>
 <structure name="finalpos" >
  <crystal>
   <varray name="basis" >
    <v>       0.00000000       3.28431199       3.28431199 </v>
    <v>       3.28431199       0.00000000       3.28431199 </v>
    <v>       3.28431199       3.28431199       0.00000000 </v>
   </varray>
   <i name="volume">     70.85381075 </i>
   <varray name="rec_basis" >
    <v>      -0.15223889       0.15223889       0.15223889 </v>
    <v>       0.15223889      -0.15223889       0.15223889 </v>
    <v>       0.15223889       0.15223889      -0.15223889 </v>
   </varray>
  </crystal>
  <varray name="positions" >
   <v>       0.00000000       0.00000000       0.00000000 </v>
   <v>       0.50000000       0.50000000       0.50000000 </v>
  </varray>
 </structure>
</modeling>
