    5    5    1    1
  0.3452573E+02  0.1045986E-08  0.1045986E-08  0.1045986E-08  0.5000000E-15
   1.0000000000000000E-004
  CAR 
 BiTe                                    
     28     61     88

  0.5000000E+00  0.5000000E+00  0.3750000E+00  0.1639344E-01
    1       -7.380317   1.000000
    2       -7.380307   1.000000
    3       -7.119702   1.000000
    4       -7.119693   1.000000
    5       -5.266415   1.000000
    6       -5.266411   1.000000
    7       -4.081129   1.000000
    8       -4.081121   1.000000
    9       -2.539372   1.000000
   10       -2.539369   1.000000
   11        2.328649   1.000000
   12        2.328661   1.000000
   13        2.493705   1.000000
   14        2.493709   1.000000
   15        3.029559   1.000000
   16        3.029561   1.000000
   17        3.543133   1.000000
   18        3.543136   1.000000
   19        3.707047   1.000000
   20        3.707049   1.000000
   21        3.943371   1.000000
   22        3.943377   1.000000
   23        4.570793   1.000000
   24        4.570796   1.000000
   25        4.718913   1.000000
   26        4.718919   1.000000
   27        5.345567   1.000000
   28        5.345574   1.000000
   29        5.546787   0.000000
   30        5.546793   0.000000
   31        6.479110   0.000000
   32        6.479116   0.000000
   33        6.787616   0.000000
   34        6.787617   0.000000
   35        7.429916   0.000000
   36        7.429922   0.000000
   37        8.181413   0.000000
   38        8.181418   0.000000
   39        8.394842   0.000000
   40        8.394850   0.000000
   41       10.374690   0.000000
   42       10.374725   0.000000
   43       10.610272   0.000000
   44       10.610306   0.000000
   45       11.010875   0.000000
   46       11.010915   0.000000
   47       11.330943   0.000000
   48       11.330970   0.000000
   49       11.878935   0.000000
   50       11.878973   0.000000
   51       12.575376   0.000000
   52       12.575415   0.000000
   53       12.700732   0.000000
   54       12.700757   0.000000
   55       12.935307   0.000000
   56       12.935343   0.000000
   57       13.147297   0.000000
   58       13.147313   0.000000
   59       13.267626   0.000000
   60       13.267651   0.000000
   61       13.755503   0.000000
   62       13.755553   0.000000
   63       14.011136   0.000000
   64       14.011158   0.000000
   65       14.527503   0.000000
   66       14.527530   0.000000
   67       14.980022   0.000000
   68       14.980043   0.000000
   69       15.342578   0.000000
   70       15.342585   0.000000
   71       15.845251   0.000000
   72       15.845277   0.000000
   73       16.820472   0.000000
   74       16.820500   0.000000
   75       16.995917   0.000000
   76       16.995960   0.000000
   77       17.745110   0.000000
   78       17.745148   0.000000
   79       18.139905   0.000000
   80       18.139920   0.000000
   81       18.310306   0.000000
   82       18.310339   0.000000
   83       18.810439   0.000000
   84       18.810597   0.000000
   85       19.002049   0.000000
   86       19.002690   0.000000
   87       19.613152   0.000000
   88       19.642047   0.000000

  0.4385111E+00  0.4385111E+00  0.3164025E+00  0.1639344E-01
    1       -7.405941   1.000000
    2       -7.405931   1.000000
    3       -7.094878   1.000000
    4       -7.094868   1.000000
    5       -5.310625   1.000000
    6       -5.310621   1.000000
    7       -4.025425   1.000000
    8       -4.025417   1.000000
    9       -2.555336   1.000000
   10       -2.555332   1.000000
   11        2.376824   1.000000
   12        2.376836   1.000000
   13        2.504801   1.000000
   14        2.504805   1.000000
   15        3.015187   1.000000
   16        3.015188   1.000000
   17        3.547460   1.000000
   18        3.547463   1.000000
   19        3.692945   1.000000
   20        3.692946   1.000000
   21        3.956348   1.000000
   22        3.956353   1.000000
   23        4.573605   1.000000
   24        4.573609   1.000000
   25        4.818269   1.000000
   26        4.818277   1.000000
   27        5.317377   1.000000
   28        5.317384   1.000000
   29        5.552365   0.000000
   30        5.552370   0.000000
   31        6.384496   0.000000
   32        6.384502   0.000000
   33        6.763024   0.000000
   34        6.763025   0.000000
   35        7.436686   0.000000
   36        7.436692   0.000000
   37        8.193526   0.000000
   38        8.193531   0.000000
   39        8.400223   0.000000
   40        8.400230   0.000000
   41       10.434948   0.000000
   42       10.434979   0.000000
   43       10.551077   0.000000
   44       10.551110   0.000000
   45       11.001020   0.000000
   46       11.001058   0.000000
   47       11.281574   0.000000
   48       11.281601   0.000000
   49       12.061959   0.000000
   50       12.061998   0.000000
   51       12.488978   0.000000
   52       12.489021   0.000000
   53       12.889999   0.000000
   54       12.890016   0.000000
   55       12.967092   0.000000
   56       12.967108   0.000000
   57       12.992147   0.000000
   58       12.992164   0.000000
   59       13.066997   0.000000
   60       13.067019   0.000000
   61       13.757423   0.000000
   62       13.757439   0.000000
   63       13.770150   0.000000
   64       13.770165   0.000000
   65       14.747111   0.000000
   66       14.747139   0.000000
   67       15.115674   0.000000
   68       15.115698   0.000000
   69       15.524412   0.000000
   70       15.524432   0.000000
   71       15.590083   0.000000
   72       15.590091   0.000000
   73       16.595768   0.000000
   74       16.595812   0.000000
   75       16.716102   0.000000
   76       16.716131   0.000000
   77       18.069856   0.000000
   78       18.069891   0.000000
   79       18.381964   0.000000
   80       18.382006   0.000000
   81       18.547526   0.000000
   82       18.547587   0.000000
   83       18.658244   0.000000
   84       18.658666   0.000000
   85       19.205493   0.000000
   86       19.241342   0.000000
   87       19.351984   0.000000
   88       19.413993   0.000000

  0.4692555E+00  0.4692555E+00  0.3457012E+00  0.1639344E-01
    1       -7.391721   1.000000
    2       -7.391711   1.000000
    3       -7.109781   1.000000
    4       -7.109771   1.000000
    5       -5.284931   1.000000
    6       -5.284927   1.000000
    7       -4.058017   1.000000
    8       -4.058009   1.000000
    9       -2.544914   1.000000
   10       -2.544910   1.000000
   11        2.352734   1.000000
   12        2.352746   1.000000
   13        2.500388   1.000000
   14        2.500392   1.000000
   15        3.020948   1.000000
   16        3.020950   1.000000
   17        3.545681   1.000000
   18        3.545684   1.000000
   19        3.700295   1.000000
   20        3.700297   1.000000
   21        3.945807   1.000000
   22        3.945813   1.000000
   23        4.577541   1.000000
   24        4.577544   1.000000
   25        4.766797   1.000000
   26        4.766805   1.000000
   27        5.336065   1.000000
   28        5.336072   1.000000
   29        5.544033   0.000000
   30        5.544038   0.000000
   31        6.431530   0.000000
   32        6.431535   0.000000
   33        6.773197   0.000000
   34        6.773198   0.000000
   35        7.432908   0.000000
   36        7.432914   0.000000
   37        8.190394   0.000000
   38        8.190400   0.000000
   39        8.399868   0.000000
   40        8.399876   0.000000
   41       10.411650   0.000000
   42       10.411683   0.000000
   43       10.577538   0.000000
   44       10.577571   0.000000
   45       10.999154   0.000000
   46       10.999193   0.000000
   47       11.304094   0.000000
   48       11.304121   0.000000
   49       11.969840   0.000000
   50       11.969879   0.000000
   51       12.538813   0.000000
   52       12.538854   0.000000
   53       12.801846   0.000000
   54       12.801871   0.000000
   55       12.937783   0.000000
   56       12.937816   0.000000
   57       13.060805   0.000000
   58       13.060820   0.000000
   59       13.158968   0.000000
   60       13.158991   0.000000
   61       13.756280   0.000000
   62       13.756331   0.000000
   63       13.885964   0.000000
   64       13.885987   0.000000
   65       14.639460   0.000000
   66       14.639487   0.000000
   67       15.057785   0.000000
   68       15.057808   0.000000
   69       15.459271   0.000000
   70       15.459281   0.000000
   71       15.692018   0.000000
   72       15.692043   0.000000
   73       16.722442   0.000000
   74       16.722473   0.000000
   75       16.833062   0.000000
   76       16.833103   0.000000
   77       17.908177   0.000000
   78       17.908210   0.000000
   79       18.324254   0.000000
   80       18.324357   0.000000
   81       18.475060   0.000000
   82       18.475270   0.000000
   83       18.632232   0.000000
   84       18.632500   0.000000
   85       19.170378   0.000000
   86       19.174960   0.000000
   87       19.435555   0.000000
   88       19.441099   0.000000

  0.5307445E+00  0.5307445E+00  0.4042988E+00  0.1639344E-01
    1       -7.372901   1.000000
    2       -7.372892   1.000000
    3       -7.123387   1.000000
    4       -7.123377   1.000000
    5       -5.256176   1.000000
    6       -5.256172   1.000000
    7       -4.093723   1.000000
    8       -4.093716   1.000000
    9       -2.538749   1.000000
   10       -2.538746   1.000000
   11        2.305131   1.000000
   12        2.305144   1.000000
   13        2.484849   1.000000
   14        2.484852   1.000000
   15        3.040506   1.000000
   16        3.040508   1.000000
   17        3.538497   1.000000
   18        3.538499   1.000000
   19        3.712476   1.000000
   20        3.712479   1.000000
   21        3.950318   1.000000
   22        3.950325   1.000000
   23        4.548662   1.000000
   24        4.548667   1.000000
   25        4.681448   1.000000
   26        4.681453   1.000000
   27        5.344166   1.000000
   28        5.344172   1.000000
   29        5.561685   0.000000
   30        5.561690   0.000000
   31        6.525632   0.000000
   32        6.525638   0.000000
   33        6.806186   0.000000
   34        6.806187   0.000000
   35        7.428478   0.000000
   36        7.428484   0.000000
   37        8.167058   0.000000
   38        8.167063   0.000000
   39        8.384919   0.000000
   40        8.384927   0.000000
   41       10.329368   0.000000
   42       10.329404   0.000000
   43       10.647331   0.000000
   44       10.647365   0.000000
   45       11.031203   0.000000
   46       11.031243   0.000000
   47       11.361924   0.000000
   48       11.361951   0.000000
   49       11.793118   0.000000
   50       11.793157   0.000000
   51       12.585836   0.000000
   52       12.585860   0.000000
   53       12.609649   0.000000
   54       12.609674   0.000000
   55       12.972290   0.000000
   56       12.972328   0.000000
   57       13.240110   0.000000
   58       13.240126   0.000000
   59       13.378445   0.000000
   60       13.378472   0.000000
   61       13.759291   0.000000
   62       13.759339   0.000000
   63       14.137744   0.000000
   64       14.137767   0.000000
   65       14.419264   0.000000
   66       14.419291   0.000000
   67       14.887619   0.000000
   68       14.887637   0.000000
   69       15.225695   0.000000
   70       15.225699   0.000000
   71       15.992239   0.000000
   72       15.992265   0.000000
   73       16.927791   0.000000
   74       16.927818   0.000000
   75       17.137140   0.000000
   76       17.137182   0.000000
   77       17.605266   0.000000
   78       17.605303   0.000000
   79       17.951540   0.000000
   80       17.951557   0.000000
   81       18.147141   0.000000
   82       18.147179   0.000000
   83       18.808886   0.000000
   84       18.809010   0.000000
   85       19.011086   0.000000
   86       19.011172   0.000000
   87       19.816788   0.000000
   88       19.878827   0.000000

  0.5614889E+00  0.5614889E+00  0.4335975E+00  0.1639344E-01
    1       -7.370232   1.000000
    2       -7.370223   1.000000
    3       -7.120049   1.000000
    4       -7.120039   1.000000
    5       -5.254817   1.000000
    6       -5.254813   1.000000
    7       -4.095242   1.000000
    8       -4.095234   1.000000
    9       -2.543040   1.000000
   10       -2.543036   1.000000
   11        2.282663   1.000000
   12        2.282676   1.000000
   13        2.474037   1.000000
   14        2.474040   1.000000
   15        3.053267   1.000000
   16        3.053269   1.000000
   17        3.530769   1.000000
   18        3.530772   1.000000
   19        3.716221   1.000000
   20        3.716223   1.000000
   21        3.966737   1.000000
   22        3.966744   1.000000
   23        4.511418   1.000000
   24        4.511425   1.000000
   25        4.656581   1.000000
   26        4.656584   1.000000
   27        5.332943   1.000000
   28        5.332949   1.000000
   29        5.586993   0.000000
   30        5.586999   0.000000
   31        6.569284   0.000000
   32        6.569289   0.000000
   33        6.828884   0.000000
   34        6.828885   0.000000
   35        7.429451   0.000000
   36        7.429457   0.000000
   37        8.147806   0.000000
   38        8.147811   0.000000
   39        8.370178   0.000000
   40        8.370186   0.000000
   41       10.279689   0.000000
   42       10.279726   0.000000
   43       10.687826   0.000000
   44       10.687860   0.000000
   45       11.053889   0.000000
   46       11.053929   0.000000
   47       11.396857   0.000000
   48       11.396884   0.000000
   49       11.717301   0.000000
   50       11.717339   0.000000
   51       12.497095   0.000000
   52       12.497121   0.000000
   53       12.611821   0.000000
   54       12.611858   0.000000
   55       13.039798   0.000000
   56       13.039837   0.000000
   57       13.338870   0.000000
   58       13.338885   0.000000
   59       13.485236   0.000000
   60       13.485266   0.000000
   61       13.764843   0.000000
   62       13.764888   0.000000
   63       14.256947   0.000000
   64       14.256968   0.000000
   65       14.328913   0.000000
   66       14.328939   0.000000
   67       14.787460   0.000000
   68       14.787477   0.000000
   69       15.109391   0.000000
   70       15.109394   0.000000
   71       16.125415   0.000000
   72       16.125441   0.000000
   73       17.033421   0.000000
   74       17.033448   0.000000
   75       17.199193   0.000000
   76       17.199234   0.000000
   77       17.530387   0.000000
   78       17.530419   0.000000
   79       17.767466   0.000000
   80       17.767485   0.000000
   81       18.019881   0.000000
   82       18.019919   0.000000
   83       18.633597   0.000000
   84       18.633639   0.000000
   85       19.205012   0.000000
   86       19.205404   0.000000
   87       20.005847   0.000000
   88       20.126427   0.000000

  0.5133337E+00  0.4866663E+00  0.3750000E+00  0.1639344E-01
    1       -7.375897   1.000000
    2       -7.375887   1.000000
    3       -7.115591   1.000000
    4       -7.115582   1.000000
    5       -5.264302   1.000000
    6       -5.264298   1.000000
    7       -4.082186   1.000000
    8       -4.082178   1.000000
    9       -2.547643   1.000000
   10       -2.547639   1.000000
   11        2.315774   1.000000
   12        2.315786   1.000000
   13        2.491723   1.000000
   14        2.491727   1.000000
   15        2.972105   1.000000
   16        2.972111   1.000000
   17        3.551310   1.000000
   18        3.551313   1.000000
   19        3.758530   1.000000
   20        3.758536   1.000000
   21        3.948913   1.000000
   22        3.948919   1.000000
   23        4.529817   1.000000
   24        4.529820   1.000000
   25        4.703135   1.000000
   26        4.703143   1.000000
   27        5.199178   1.000000
   28        5.199185   1.000000
   29        5.710134   0.000000
   30        5.710138   0.000000
   31        6.476049   0.000000
   32        6.476055   0.000000
   33        6.825084   0.000000
   34        6.825085   0.000000
   35        7.416878   0.000000
   36        7.416887   0.000000
   37        8.188517   0.000000
   38        8.188524   0.000000
   39        8.401415   0.000000
   40        8.401423   0.000000
   41       10.385002   0.000000
   42       10.385037   0.000000
   43       10.583405   0.000000
   44       10.583438   0.000000
   45       11.010358   0.000000
   46       11.010397   0.000000
   47       11.357509   0.000000
   48       11.357536   0.000000
   49       11.810837   0.000000
   50       11.810875   0.000000
   51       12.560800   0.000000
   52       12.560839   0.000000
   53       12.772315   0.000000
   54       12.772341   0.000000
   55       12.934927   0.000000
   56       12.934960   0.000000
   57       13.140911   0.000000
   58       13.140935   0.000000
   59       13.327749   0.000000
   60       13.327771   0.000000
   61       13.769419   0.000000
   62       13.769469   0.000000
   63       14.054202   0.000000
   64       14.054225   0.000000
   65       14.511754   0.000000
   66       14.511781   0.000000
   67       14.867511   0.000000
   68       14.867534   0.000000
   69       15.488483   0.000000
   70       15.488502   0.000000
   71       15.846839   0.000000
   72       15.846864   0.000000
   73       16.836679   0.000000
   74       16.836706   0.000000
   75       17.013909   0.000000
   76       17.013952   0.000000
   77       17.715385   0.000000
   78       17.715419   0.000000
   79       18.005921   0.000000
   80       18.005954   0.000000
   81       18.427159   0.000000
   82       18.427207   0.000000
   83       18.770367   0.000000
   84       18.770421   0.000000
   85       19.042974   0.000000
   86       19.047879   0.000000
   87       19.466939   0.000000
   88       19.470274   0.000000

  0.5066669E+00  0.4933331E+00  0.3750000E+00  0.1639344E-01
    1       -7.379212   1.000000
    2       -7.379202   1.000000
    3       -7.118674   1.000000
    4       -7.118664   1.000000
    5       -5.265885   1.000000
    6       -5.265881   1.000000
    7       -4.081392   1.000000
    8       -4.081384   1.000000
    9       -2.541441   1.000000
   10       -2.541437   1.000000
   11        2.325493   1.000000
   12        2.325506   1.000000
   13        2.493214   1.000000
   14        2.493217   1.000000
   15        3.013844   1.000000
   16        3.013847   1.000000
   17        3.546066   1.000000
   18        3.546069   1.000000
   19        3.720564   1.000000
   20        3.720567   1.000000
   21        3.944600   1.000000
   22        3.944606   1.000000
   23        4.561134   1.000000
   24        4.561137   1.000000
   25        4.713952   1.000000
   26        4.713959   1.000000
   27        5.293300   1.000000
   28        5.293306   1.000000
   29        5.603516   0.000000
   30        5.603521   0.000000
   31        6.478379   0.000000
   32        6.478385   0.000000
   33        6.797191   0.000000
   34        6.797193   0.000000
   35        7.426456   0.000000
   36        7.426463   0.000000
   37        8.183233   0.000000
   38        8.183239   0.000000
   39        8.396527   0.000000
   40        8.396535   0.000000
   41       10.377382   0.000000
   42       10.377417   0.000000
   43       10.603225   0.000000
   44       10.603258   0.000000
   45       11.010762   0.000000
   46       11.010802   0.000000
   47       11.337816   0.000000
   48       11.337843   0.000000
   49       11.860613   0.000000
   50       11.860652   0.000000
   51       12.571203   0.000000
   52       12.571243   0.000000
   53       12.720397   0.000000
   54       12.720423   0.000000
   55       12.933878   0.000000
   56       12.933914   0.000000
   57       13.148093   0.000000
   58       13.148112   0.000000
   59       13.281573   0.000000
   60       13.281597   0.000000
   61       13.758387   0.000000
   62       13.758437   0.000000
   63       14.022706   0.000000
   64       14.022728   0.000000
   65       14.524269   0.000000
   66       14.524296   0.000000
   67       14.942427   0.000000
   68       14.942449   0.000000
   69       15.387753   0.000000
   70       15.387767   0.000000
   71       15.845618   0.000000
   72       15.845644   0.000000
   73       16.824555   0.000000
   74       16.824583   0.000000
   75       17.000406   0.000000
   76       17.000448   0.000000
   77       17.738849   0.000000
   78       17.738886   0.000000
   79       18.087596   0.000000
   80       18.087630   0.000000
   81       18.359395   0.000000
   82       18.359413   0.000000
   83       18.796900   0.000000
   84       18.797243   0.000000
   85       19.013156   0.000000
   86       19.016919   0.000000
   87       19.567008   0.000000
   88       19.575846   0.000000

  0.4933331E+00  0.5066669E+00  0.3750000E+00  0.1639344E-01
    1       -7.379212   1.000000
    2       -7.379202   1.000000
    3       -7.118674   1.000000
    4       -7.118664   1.000000
    5       -5.265885   1.000000
    6       -5.265881   1.000000
    7       -4.081392   1.000000
    8       -4.081384   1.000000
    9       -2.541441   1.000000
   10       -2.541437   1.000000
   11        2.325493   1.000000
   12        2.325506   1.000000
   13        2.493214   1.000000
   14        2.493217   1.000000
   15        3.013843   1.000000
   16        3.013848   1.000000
   17        3.546066   1.000000
   18        3.546069   1.000000
   19        3.720564   1.000000
   20        3.720567   1.000000
   21        3.944599   1.000000
   22        3.944606   1.000000
   23        4.561134   1.000000
   24        4.561137   1.000000
   25        4.713952   1.000000
   26        4.713959   1.000000
   27        5.293300   1.000000
   28        5.293305   1.000000
   29        5.603517   0.000000
   30        5.603520   0.000000
   31        6.478379   0.000000
   32        6.478385   0.000000
   33        6.797192   0.000000
   34        6.797193   0.000000
   35        7.426457   0.000000
   36        7.426462   0.000000
   37        8.183233   0.000000
   38        8.183239   0.000000
   39        8.396527   0.000000
   40        8.396535   0.000000
   41       10.377382   0.000000
   42       10.377417   0.000000
   43       10.603225   0.000000
   44       10.603258   0.000000
   45       11.010762   0.000000
   46       11.010802   0.000000
   47       11.337816   0.000000
   48       11.337843   0.000000
   49       11.860613   0.000000
   50       11.860652   0.000000
   51       12.571203   0.000000
   52       12.571243   0.000000
   53       12.720397   0.000000
   54       12.720422   0.000000
   55       12.933878   0.000000
   56       12.933914   0.000000
   57       13.148093   0.000000
   58       13.148112   0.000000
   59       13.281573   0.000000
   60       13.281597   0.000000
   61       13.758387   0.000000
   62       13.758437   0.000000
   63       14.022706   0.000000
   64       14.022728   0.000000
   65       14.524269   0.000000
   66       14.524296   0.000000
   67       14.942427   0.000000
   68       14.942449   0.000000
   69       15.387753   0.000000
   70       15.387767   0.000000
   71       15.845618   0.000000
   72       15.845644   0.000000
   73       16.824555   0.000000
   74       16.824583   0.000000
   75       17.000406   0.000000
   76       17.000448   0.000000
   77       17.738850   0.000000
   78       17.738889   0.000000
   79       18.087599   0.000000
   80       18.087634   0.000000
   81       18.359378   0.000000
   82       18.359407   0.000000
   83       18.796879   0.000000
   84       18.797002   0.000000
   85       19.012861   0.000000
   86       19.013623   0.000000
   87       19.571809   0.000000
   88       19.585618   0.000000

  0.4866663E+00  0.5133337E+00  0.3750000E+00  0.1639344E-01
    1       -7.375897   1.000000
    2       -7.375887   1.000000
    3       -7.115591   1.000000
    4       -7.115582   1.000000
    5       -5.264302   1.000000
    6       -5.264298   1.000000
    7       -4.082186   1.000000
    8       -4.082178   1.000000
    9       -2.547643   1.000000
   10       -2.547639   1.000000
   11        2.315774   1.000000
   12        2.315786   1.000000
   13        2.491723   1.000000
   14        2.491727   1.000000
   15        2.972104   1.000000
   16        2.972111   1.000000
   17        3.551310   1.000000
   18        3.551313   1.000000
   19        3.758531   1.000000
   20        3.758535   1.000000
   21        3.948913   1.000000
   22        3.948919   1.000000
   23        4.529817   1.000000
   24        4.529820   1.000000
   25        4.703135   1.000000
   26        4.703143   1.000000
   27        5.199179   1.000000
   28        5.199184   1.000000
   29        5.710135   0.000000
   30        5.710138   0.000000
   31        6.476049   0.000000
   32        6.476055   0.000000
   33        6.825084   0.000000
   34        6.825085   0.000000
   35        7.416881   0.000000
   36        7.416885   0.000000
   37        8.188517   0.000000
   38        8.188523   0.000000
   39        8.401415   0.000000
   40        8.401423   0.000000
   41       10.385002   0.000000
   42       10.385037   0.000000
   43       10.583405   0.000000
   44       10.583438   0.000000
   45       11.010358   0.000000
   46       11.010397   0.000000
   47       11.357509   0.000000
   48       11.357536   0.000000
   49       11.810837   0.000000
   50       11.810875   0.000000
   51       12.560800   0.000000
   52       12.560839   0.000000
   53       12.772315   0.000000
   54       12.772341   0.000000
   55       12.934927   0.000000
   56       12.934961   0.000000
   57       13.140911   0.000000
   58       13.140935   0.000000
   59       13.327749   0.000000
   60       13.327771   0.000000
   61       13.769419   0.000000
   62       13.769469   0.000000
   63       14.054202   0.000000
   64       14.054226   0.000000
   65       14.511754   0.000000
   66       14.511781   0.000000
   67       14.867512   0.000000
   68       14.867534   0.000000
   69       15.488483   0.000000
   70       15.488502   0.000000
   71       15.846839   0.000000
   72       15.846864   0.000000
   73       16.836679   0.000000
   74       16.836706   0.000000
   75       17.013909   0.000000
   76       17.013952   0.000000
   77       17.715385   0.000000
   78       17.715419   0.000000
   79       18.005921   0.000000
   80       18.005954   0.000000
   81       18.427148   0.000000
   82       18.427161   0.000000
   83       18.770320   0.000000
   84       18.770322   0.000000
   85       19.043318   0.000000
   86       19.043873   0.000000
   87       19.467303   0.000000
   88       19.473591   0.000000

  0.5000000E+00  0.5000000E+00  0.3520870E+00  0.1639344E-01
    1       -7.331081   1.000000
    2       -7.331072   1.000000
    3       -7.067999   1.000000
    4       -7.067989   1.000000
    5       -5.249189   1.000000
    6       -5.249185   1.000000
    7       -4.083096   1.000000
    8       -4.083089   1.000000
    9       -2.643426   1.000000
   10       -2.643422   1.000000
   11        2.100643   1.000000
   12        2.100656   1.000000
   13        2.507725   1.000000
   14        2.507728   1.000000
   15        2.869826   1.000000
   16        2.869828   1.000000
   17        3.468668   1.000000
   18        3.468670   1.000000
   19        3.619114   1.000000
   20        3.619116   1.000000
   21        3.893629   1.000000
   22        3.893635   1.000000
   23        4.474192   1.000000
   24        4.474201   1.000000
   25        4.619204   1.000000
   26        4.619207   1.000000
   27        5.304591   1.000000
   28        5.304599   1.000000
   29        5.629333   0.000000
   30        5.629337   0.000000
   31        6.671755   0.000000
   32        6.671757   0.000000
   33        6.871797   0.000000
   34        6.871800   0.000000
   35        7.579972   0.000000
   36        7.579979   0.000000
   37        8.285833   0.000000
   38        8.285839   0.000000
   39        8.500440   0.000000
   40        8.500446   0.000000
   41       10.256672   0.000000
   42       10.256709   0.000000
   43       10.643622   0.000000
   44       10.643658   0.000000
   45       10.918422   0.000000
   46       10.918459   0.000000
   47       11.443395   0.000000
   48       11.443422   0.000000
   49       11.824554   0.000000
   50       11.824593   0.000000
   51       12.554111   0.000000
   52       12.554152   0.000000
   53       12.684821   0.000000
   54       12.684847   0.000000
   55       12.984116   0.000000
   56       12.984152   0.000000
   57       13.099787   0.000000
   58       13.099804   0.000000
   59       13.422273   0.000000
   60       13.422300   0.000000
   61       14.076671   0.000000
   62       14.076720   0.000000
   63       14.208343   0.000000
   64       14.208365   0.000000
   65       14.776321   0.000000
   66       14.776350   0.000000
   67       15.131257   0.000000
   68       15.131281   0.000000
   69       15.578912   0.000000
   70       15.578924   0.000000
   71       16.205835   0.000000
   72       16.205861   0.000000
   73       16.699092   0.000000
   74       16.699119   0.000000
   75       17.073774   0.000000
   76       17.073819   0.000000
   77       17.870196   0.000000
   78       17.870224   0.000000
   79       18.100749   0.000000
   80       18.100757   0.000000
   81       18.273052   0.000000
   82       18.273095   0.000000
   83       18.633869   0.000000
   84       18.634100   0.000000
   85       18.848259   0.000000
   86       18.848514   0.000000
   87       19.745113   0.000000
   88       19.781845   0.000000

  0.5000000E+00  0.5000000E+00  0.3635435E+00  0.1639344E-01
    1       -7.356693   1.000000
    2       -7.356683   1.000000