 vasp.5.4.4.18Apr17-6-g9f103f2a35 (build Mar 20 2018 18:07:30) complex           
 executed on             LinuxGNU date 2020.07.06  22:44:03
 running on    8 total cores
 distrk:  each k-point on    8 cores,    1 groups
 distr:  one band on NCORES_PER_BAND=   2 cores,    4 groups


--------------------------------------------------------------------------------------------------------


 INCAR:
 POTCAR:    PAW_PBE Bi 08Apr2002                  
 POTCAR:    PAW_PBE Te 08Apr2002                  
 POTCAR:    PAW_PBE Bi 08Apr2002                  
   VRHFIN =Bi:                                                                  
   LEXCH  = PE                                                                  
   EATOM  =   150.8133 eV,   11.0845 Ry                                         
                                                                                
   TITEL  = PAW_PBE Bi 08Apr2002                                                
   LULTRA =        F    use ultrasoft PP ?                                      
   IUNSCR =        1    unscreen: 0-lin 1-nonlin 2-no                           
   RPACOR =    2.200    partial core radius                                     
   POMASS =  208.980; ZVAL   =    5.000    mass and valenz                      
   RCORE  =    3.000    outmost cutoff radius                                   
   RWIGS  =    3.090; RWIGS  =    1.635    wigner-seitz radius (au A)           
   ENMAX  =  105.037; ENMIN  =   78.777 eV                                      
   ICORE  =        3    local potential                                         
   LCOR   =        T    correct aug charges                                     
   LPAW   =        T    paw PP                                                  
   EAUG   =  265.427                                                            
   DEXC   =    0.000                                                            
   RMAX   =    3.067    core radius for proj-oper                               
   RAUG   =    1.300    factor for augmentation sphere                          
   RDEP   =    3.012    radius for radial grids                                 
   RDEPT  =    2.604    core radius for aug-charge                              
                                                                                
   Atomic configuration                                                         
   17 entries                                                                   
     n  l   j            E        occ.                                          
     1  0  0.50    -90639.6582   2.0000                                         
     2  0  0.50    -16282.4667   2.0000                                         
     2  1  1.50    -13922.8287   6.0000                                         
     3  0  0.50     -3930.4763   2.0000                                         
     3  1  1.50     -3256.7013   6.0000                                         
     3  2  2.50     -2581.6169  10.0000                                         
     4  0  0.50      -902.2614   2.0000                                         
     4  1  1.50      -681.5915   6.0000                                         
     4  2  2.50      -429.8249  10.0000                                         
     4  3  3.50      -152.6004  14.0000                                         
     5  0  0.50      -157.7156   2.0000                                         
     5  1  1.50       -95.8054   6.0000                                         
     5  2  2.50       -27.0806  10.0000                                         
     6  0  0.50       -14.4732   2.0000                                         
     6  1  1.50        -4.5702   3.0000                                         
     6  2  2.50        -2.7212   0.0000                                         
     5  3  2.50        -2.7212   0.0000                                         
   Description                                                                  
     l       E           TYP  RCUT    TYP  RCUT                                 
     0    -14.4732299     23  3.000                                             
     0    -12.2452434     23  3.000                                             
     1     -4.5701666     23  3.000                                             
     1    -13.6058260     23  3.000                                             
     2     -2.7211652     23  3.000                                             
     3     -1.3605826      7  3.000                                             
  local pseudopotential read in
  partial core-charges read in
  partial kinetic energy density read in
  kinetic energy density of atom read in
  atomic valenz-charges read in
  non local Contribution for L=           0  read in
    real space projection operators read in
  non local Contribution for L=           0  read in
    real space projection operators read in
  non local Contribution for L=           1  read in
    real space projection operators read in
  non local Contribution for L=           1  read in
    real space projection operators read in
  non local Contribution for L=           2  read in
    real space projection operators read in
    PAW grid and wavefunctions read in

   number of l-projection  operators is LMAX  =           5
   number of lm-projection operators is LMMAX =          13

 POTCAR:    PAW_PBE Te 08Apr2002                  
   VRHFIN =Te: s2p4                                                             
   LEXCH  = PE                                                                  
   EATOM  =   223.2721 eV,   16.4100 Ry                                         
                                                                                
   TITEL  = PAW_PBE Te 08Apr2002                                                
   LULTRA =        F    use ultrasoft PP ?                                      
   IUNSCR =        1    unscreen: 0-lin 1-nonlin 2-no                           
   RPACOR =    2.200    partial core radius                                     
   POMASS =  127.600; ZVAL   =    6.000    mass and valenz                      
   RCORE  =    2.300    outmost cutoff radius                                   
   RWIGS  =    2.900; RWIGS  =    1.535    wigner-seitz radius (au A)           
   ENMAX  =  174.982; ENMIN  =  131.236 eV                                      
   ICORE  =        3    local potential                                         
   LCOR   =        T    correct aug charges                                     
   LPAW   =        T    paw PP                                                  
   EAUG   =  368.792                                                            
   DEXC   =    0.000                                                            
   RMAX   =    2.345    core radius for proj-oper                               
   RAUG   =    1.300    factor for augmentation sphere                          
   RDEP   =    2.397    radius for radial grids                                 
   RDEPT  =    2.174    core radius for aug-charge                              
                                                                                
   Atomic configuration                                                         
   13 entries                                                                   
     n  l   j            E        occ.                                          
     1  0  0.50    -31621.2075   2.0000                                         
     2  0  0.50     -4848.7941   2.0000                                         
     2  1  1.50     -4352.1960   6.0000                                         
     3  0  0.50      -964.9612   2.0000                                         
     3  1  1.50      -803.6179   6.0000                                         
     3  2  2.50      -559.8710  10.0000                                         
     4  0  0.50      -164.3522   2.0000                                         
     4  1  1.50      -114.3756   6.0000                                         
     4  2  2.50       -41.6483  10.0000                                         
     5  0  0.50       -15.1072   2.0000                                         
     5  1  0.50        -5.9526   4.0000                                         
     5  2  1.50        -5.4423   0.0000                                         
     4  3  2.50        -5.4423   0.0000                                         
   Description                                                                  
     l       E           TYP  RCUT    TYP  RCUT                                 
     0    -15.1072389     23  2.300                                             
     0    -16.4678215     23  2.300                                             
     1     -5.9526306     23  2.300                                             
     1     -2.4873968     23  2.300                                             
     2     -5.4423304     23  2.300                                             
     3     -1.3605826     23  2.300                                             
  local pseudopotential read in
  partial core-charges read in
  partial kinetic energy density read in
  atomic valenz-charges read in
  non local Contribution for L=           0  read in
    real space projection operators read in
  non local Contribution for L=           0  read in
    real space projection operators read in
  non local Contribution for L=           1  read in
    real space projection operators read in
  non local Contribution for L=           1  read in
    real space projection operators read in
  non local Contribution for L=           2  read in
    real space projection operators read in
    PAW grid and wavefunctions read in

   number of l-projection  operators is LMAX  =           5
   number of lm-projection operators is LMMAX =          13

 WARNING: PSMAXN for non-local potential too small
          PSMAXN should be >   12.549083372950625       NTYP=           1
  PAW_PBE Bi 08Apr2002                  :
 energy of atom  1       EATOM= -150.8133
 kinetic energy error for atom=    0.0000 (will be added to EATOM!!)
  PAW_PBE Te 08Apr2002                  :
 energy of atom  2       EATOM= -223.2721
 kinetic energy error for atom=    0.0004 (will be added to EATOM!!)


 POSCAR: Bi2 Te3                                 
  positions in direct lattice
  No initial velocities read in
 exchange correlation table for  LEXCH =        8
   RHO(1)=    0.500       N(1)  =     2000
   RHO(2)=  100.500       N(2)  =     4000



--------------------------------------------------------------------------------------------------------


 ion  position               nearest neighbor table
   1  0.400  0.400  0.400-   5 3.08   5 3.08   5 3.08   3 3.26   3 3.26   3 3.26
   2  0.600  0.600  0.600-   4 3.08   4 3.08   4 3.08   3 3.26   3 3.26   3 3.26
   3  0.000  0.000  0.000-   2 3.26   2 3.26   1 3.26   1 3.26   2 3.26   1 3.26
   4  0.210  0.210  0.210-   2 3.08   2 3.08   2 3.08
   5  0.790  0.790  0.790-   1 3.08   1 3.08   1 3.08


IMPORTANT INFORMATION: All symmetrisations will be switched off!
NOSYMM: (Re-)initialisation of all symmetry stuff for point group C_1.



 KPOINTS: EMC 1.51py                              
  k-points in reciprocal lattice
Space group operators:
 irot       det(A)        alpha          n_x          n_y          n_z        tau_x        tau_y        tau_z
    1     1.000000     0.000000     1.000000     0.000000     0.000000     0.000000     0.000000     0.000000


--------------------------------------------------------------------------------------------------------




 Dimension of arrays:
   k-points           NKPTS =     61   k-points in BZ     NKDIM =     61   number of bands    NBANDS=     88
   number of dos      NEDOS =    301   number of ions     NIONS =      5
   non local maximal  LDIM  =      5   non local SUM 2l+1 LMDIM =     13
   total plane-waves  NPLWV = 592704
   max r-space proj   IRMAX =      1   max aug-charges    IRDMAX= ******
   dimension x,y,z NGX =    84 NGY =   84 NGZ =   84
   dimension x,y,z NGXF=   168 NGYF=  168 NGZF=  168
   support grid    NGXF=   336 NGYF=  336 NGZF=  336
   ions per type =               2   3
   NGX,Y,Z   is equivalent  to a cutoff of  13.35, 13.35, 13.35 a.u.
   NGXF,Y,Z  is equivalent  to a cutoff of  26.70, 26.70, 26.70 a.u.

 SYSTEM =  BiTe                                    
 POSCAR =  Bi2 Te3                                 

 Startparameter for this run:
   NWRITE =      2    write-flag & timer
   PREC   = accura    normal or accurate (medium, high low for compatibility)
   ISTART =      0    job   : 0-new  1-cont  2-samecut
   ICHARG =     11    charge: 1-file 2-atom 10-const
   ISPIN  =      1    spin polarized calculation?
   LNONCOLLINEAR =      T non collinear calculations
   LSORBIT =      T    spin-orbit coupling
   INIWAV =      1    electr: 0-lowe 1-rand  2-diag
   LASPH  =      F    aspherical Exc in radial PAW
   METAGGA=      F    non-selfconsistent MetaGGA calc.

 Electronic Relaxation 1
   ENCUT  =  600.0 eV  44.10 Ry    6.64 a.u.  20.89 20.89 20.89*2*pi/ulx,y,z
   ENINI  =  600.0     initial cutoff
   ENAUG  =  368.8 eV  augmentation charge cutoff
   NELM   =     60;   NELMIN=  2; NELMDL=  0     # of ELM steps 
   EDIFF  = 0.1E-06   stopping-criterion for ELM
   LREAL  =      F    real-space projection
   NLSPLINE    = F    spline interpolate recip. space projectors
   LCOMPAT=      F    compatible to vasp.4.4
   GGA_COMPAT  = F    GGA compatible to vasp.4.4-vasp.4.6
   LMAXPAW     = -100 max onsite density
   LMAXMIX     =    4 max onsite mixed and CHGCAR
   VOSKOWN=      0    Vosko Wilk Nusair interpolation
   ROPT   =    0.00000   0.00000
 Ionic relaxation
   EDIFFG = -.1E-02   stopping-criterion for IOM
   NSW    =      0    number of steps for IOM
   NBLOCK =      1;   KBLOCK =      1    inner block; outer block 
   IBRION =     -1    ionic relax: 0-MD 1-quasi-New 2-CG
   NFREE  =      0    steps in history (QN), initial steepest desc. (CG)
   ISIF   =      2    stress and relaxation
   IWAVPR =     10    prediction:  0-non 1-charg 2-wave 3-comb
   ISYM   =     -1    0-nonsym 1-usesym 2-fastsym
   LCORR  =      T    Harris-Foulkes like correction to forces

   POTIM  = 0.5000    time-step for ionic-motion
   TEIN   =    0.0    initial temperature
   TEBEG  =    0.0;   TEEND  =   0.0 temperature during run
   SMASS  =  -3.00    Nose mass-parameter (am)
   estimated Nose-frequenzy (Omega)   =  0.10E-29 period in steps =****** mass=  -0.250E-26a.u.
   SCALEE = 1.0000    scale energy and forces
   NPACO  =    256;   APACO  = 16.0  distance and # of slots for P.C.
   PSTRESS=    0.0 pullay stress

  Mass of Ions in am
   POMASS = 208.98127.60
  Ionic Valenz
   ZVAL   =   5.00  6.00
  Atomic Wigner-Seitz radii
   RWIGS  =  -1.00 -1.00
  virtual crystal weights 
   VCA    =   1.00  1.00
   NELECT =      28.0000    total number of electrons
   NUPDOWN=      -1.0000    fix difference up-down

 DOS related values:
   EMIN   =  10.00;   EMAX   =-10.00  energy-range for DOS
   EFERMI =   0.00
   ISMEAR =     0;   SIGMA  =   0.01  broadening in eV -4-tet -1-fermi 0-gaus

 Electronic relaxation 2 (details)
   IALGO  =     58    algorithm
   LDIAG  =      T    sub-space diagonalisation (order eigenvalues)
   LSUBROT=      F    optimize rotation matrix (better conditioning)
   TURBO    =      0    0=normal 1=particle mesh
   IRESTART =      0    0=no restart 2=restart with 2 vectors
   NREBOOT  =      0    no. of reboots
   NMIN     =      0    reboot dimension
   EREF     =   0.00    reference energy to select bands
   IMIX   =      4    mixing-type and parameters
     AMIX     =   0.40;   BMIX     =  1.00
     AMIX_MAG =   1.60;   BMIX_MAG =  1.00
     AMIN     =   0.10
     WC   =   100.;   INIMIX=   1;  MIXPRE=   1;  MAXMIX= -45

 Intra band minimization:
   WEIMIN = 0.0000     energy-eigenvalue tresh-hold
   EBREAK =  0.28E-09  absolut break condition
   DEPER  =   0.30     relativ break condition  

   TIME   =   0.40     timestep for ELM

  volume/ion in A,a.u.               =      34.53       232.99
  Fermi-wavevector in a.u.,A,eV,Ry     =   0.892805  1.687157 10.845211  0.797101
  Thomas-Fermi vector in A             =   2.014801

 Write flags
   LWAVE        =      F    write WAVECAR
   LDOWNSAMPLE  =      F    k-point downsampling of WAVECAR
   LCHARG       =      F    write CHGCAR
   LVTOT        =      F    write LOCPOT, total local potential
   LVHAR        =      F    write LOCPOT, Hartree potential only
   LELF         =      F    write electronic localiz. function (ELF)
   LORBIT       =      0    0 simple, 1 ext, 2 COOP (PROOUT), +10 PAW based schemes


 Dipole corrections
   LMONO  =      F    monopole corrections only (constant potential shift)
   LDIPOL =      F    correct potential (dipole corrections)
   IDIPOL =      0    1-x, 2-y, 3-z, 4-all directions 
   EPSILON=  1.0000000 bulk dielectric constant

 Exchange correlation treatment:
   GGA     =    --    GGA type
   LEXCH   =     8    internal setting for exchange type
   VOSKOWN=      0    Vosko Wilk Nusair interpolation
   LHFCALC =     F    Hartree Fock is set to
   LHFONE  =     F    Hartree Fock one center treatment
   AEXX    =    0.0000 exact exchange contribution

 Linear response parameters
   LEPSILON=     F    determine dielectric tensor
   LRPA    =     F    only Hartree local field effects (RPA)
   LNABLA  =     F    use nabla operator in PAW spheres
   LVEL    =     F    velocity operator in full k-point grid
   LINTERFAST=   F  fast interpolation
   KINTER  =     0    interpolate to denser k-point grid
   CSHIFT  =0.1000    complex shift for real part using Kramers Kronig
   OMEGAMAX=  -1.0    maximum frequency
   DEG_THRESHOLD= 0.2000000E-02 threshold for treating states as degnerate
   RTIME   =   -0.100 relaxation time in fs
  (WPLASMAI=    0.000 imaginary part of plasma frequency in eV, 0.658/RTIME)
   DFIELD  = 0.0000000 0.0000000 0.0000000 field for delta impulse in time

 Orbital magnetization related:
   ORBITALMAG=     F  switch on orbital magnetization
   LCHIMAG   =     F  perturbation theory with respect to B field
   DQ        =  0.001000  dq finite difference perturbation B field
   LLRAUG    =     F  two centre corrections for induced B field



--------------------------------------------------------------------------------------------------------


 Static calculation
 charge density and potential remain constant during run
 non collinear spin polarized calculation
 Conjugate gradient for all bands (Freysoldt, et al. PRB 79, 241103 (2009))
 preconditioned conjugated gradient   charged. constant during bandupdate  
 perform sub-space diagonalisation
    before iterative eigenvector-optimisation
 no mixing
 using additional bands           74
 reciprocal scheme for non local part
 use partial core corrections
 calculate Harris-corrections to forces   (improved forces if not selfconsistent)
 use gradient corrections 
 WARNING: stress and forces are not correct
  (second derivative of E(xc) not defined)
 use of overlap-Matrix (Vanderbilt PP)
 Gauss-broadening in eV      SIGMA  =   0.01


--------------------------------------------------------------------------------------------------------


  energy-cutoff  :      600.00
  volume of cell :      172.63
      direct lattice vectors                 reciprocal lattice vectors
    10.222282710 -2.216677340  0.000000000     0.048912754 -0.225562824 -0.125089241
    10.222282710  2.216677340  0.000000000     0.048912754  0.225562824 -0.125089241
     9.741601570  0.000000000  3.809189020    -0.000000000  0.000000000  0.262523071

  length of vectors
    10.459862439 10.459862439 10.459862434     0.262523071  0.262523071  0.262523071



 k-points in units of 2pi/SCALE and weight: EMC 1.51py                              
   0.04891275  0.00000000 -0.02664309       0.016
   0.04289757  0.00000000 -0.02664309       0.016
   0.04590516  0.00000000 -0.02664309       0.016
   0.05192035  0.00000000 -0.02664309       0.016
   0.05492794  0.00000000 -0.02664309       0.016
   0.04891275 -0.00601519 -0.02664309       0.016
   0.04891275 -0.00300759 -0.02664309       0.016
   0.04891275  0.00300759 -0.02664309       0.016
   0.04891275  0.00601519 -0.02664309       0.016
   0.04891275  0.00000000 -0.03265827       0.016
   0.04891275  0.00000000 -0.02965068       0.016
   0.04891275  0.00000000 -0.02363550       0.016
   0.04891275  0.00000000 -0.02062790       0.016
   0.04289757 -0.00601519 -0.02664309       0.016
   0.04590516 -0.00601519 -0.02664309       0.016
   0.05192035 -0.00601519 -0.02664309       0.016
   0.05492794 -0.00601519 -0.02664309       0.016
   0.04289757 -0.00300759 -0.02664309       0.016
   0.04590516 -0.00300759 -0.02664309       0.016
   0.05192035 -0.00300759 -0.02664309       0.016
   0.05492794 -0.00300759 -0.02664309       0.016
   0.04289757  0.00300759 -0.02664309       0.016
   0.04590516  0.00300759 -0.02664309       0.016
   0.05192035  0.00300759 -0.02664309       0.016
   0.05492794  0.00300759 -0.02664309       0.016
   0.04289757  0.00601519 -0.02664309       0.016
   0.04590516  0.00601519 -0.02664309       0.016
   0.05192035  0.00601519 -0.02664309       0.016
   0.05492794  0.00601519 -0.02664309       0.016
   0.04289757  0.00000000 -0.03265827       0.016
   0.04590516  0.00000000 -0.03265827       0.016
   0.05192035  0.00000000 -0.03265827       0.016
   0.05492794  0.00000000 -0.03265827       0.016
   0.04289757  0.00000000 -0.02965068       0.016
   0.04590516  0.00000000 -0.02965068       0.016
   0.05192035  0.00000000 -0.02965068       0.016
   0.05492794  0.00000000 -0.02965068       0.016
   0.04289757  0.00000000 -0.02363550       0.016
   0.04590516  0.00000000 -0.02363550       0.016
   0.05192035  0.00000000 -0.02363550       0.016
   0.05492794  0.00000000 -0.02363550       0.016
   0.04289757  0.00000000 -0.02062790       0.016
   0.04590516  0.00000000 -0.02062790       0.016
   0.05192035  0.00000000 -0.02062790       0.016
   0.05492794  0.00000000 -0.02062790       0.016
   0.04891275 -0.00601519 -0.03265827       0.016
   0.04891275 -0.00300759 -0.03265827       0.016
   0.04891275  0.00300759 -0.03265827       0.016
   0.04891275  0.00601519 -0.03265827       0.016
   0.04891275 -0.00601519 -0.02965068       0.016
   0.04891275 -0.00300759 -0.02965068       0.016
   0.04891275  0.00300759 -0.02965068       0.016
   0.04891275  0.00601519 -0.02965068       0.016
   0.04891275 -0.00601519 -0.02363550       0.016
   0.04891275 -0.00300759 -0.02363550       0.016
   0.04891275  0.00300759 -0.02363550       0.016
   0.04891275  0.00601519 -0.02363550       0.016
   0.04891275 -0.00601519 -0.02062790       0.016
   0.04891275 -0.00300759 -0.02062790       0.016
   0.04891275  0.00300759 -0.02062790       0.016
   0.04891275  0.00601519 -0.02062790       0.016

 k-points in reciprocal lattice and weights: EMC 1.51py                              
   0.50000000  0.50000000  0.37500000       0.016
   0.43851108  0.43851108  0.31640246       0.016
   0.46925554  0.46925554  0.34570123       0.016
   0.53074446  0.53074446  0.40429877       0.016
   0.56148892  0.56148892  0.43359754       0.016
   0.51333372  0.48666628  0.37500000       0.016
   0.50666686  0.49333314  0.37500000       0.016
   0.49333314  0.50666686  0.37500000       0.016
   0.48666628  0.51333372  0.37500000       0.016
   0.50000000  0.50000000  0.35208702       0.016
   0.50000000  0.50000000  0.36354351       0.016
   0.50000000  0.50000000  0.38645649       0.016
   0.50000000  0.50000000  0.39791298       0.016
   0.45184480  0.42517735  0.31640246       0.016
   0.48258926  0.45592181  0.34570123       0.016
   0.54407819  0.51741074  0.40429877       0.016
   0.57482265  0.54815520  0.43359754       0.016
   0.44517794  0.43184422  0.31640246       0.016
   0.47592240  0.46258868  0.34570123       0.016
   0.53741132  0.52407760  0.40429877       0.016
   0.56815578  0.55482206  0.43359754       0.016
   0.43184422  0.44517794  0.31640246       0.016
   0.46258868  0.47592240  0.34570123       0.016
   0.52407760  0.53741132  0.40429877       0.016
   0.55482206  0.56815578  0.43359754       0.016
   0.42517735  0.45184480  0.31640246       0.016
   0.45592181  0.48258926  0.34570123       0.016
   0.51741074  0.54407819  0.40429877       0.016
   0.54815520  0.57482265  0.43359754       0.016
   0.43851108  0.43851108  0.29348949       0.016
   0.46925554  0.46925554  0.32278825       0.016
   0.53074446  0.53074446  0.38138579       0.016
   0.56148892  0.56148892  0.41068456       0.016
   0.43851108  0.43851108  0.30494598       0.016
   0.46925554  0.46925554  0.33424474       0.016
   0.53074446  0.53074446  0.39284228       0.016
   0.56148892  0.56148892  0.42214105       0.016
   0.43851108  0.43851108  0.32785895       0.016
   0.46925554  0.46925554  0.35715772       0.016
   0.53074446  0.53074446  0.41575526       0.016
   0.56148892  0.56148892  0.44505402       0.016
   0.43851108  0.43851108  0.33931544       0.016
   0.46925554  0.46925554  0.36861421       0.016
   0.53074446  0.53074446  0.42721175       0.016
   0.56148892  0.56148892  0.45651051       0.016
   0.51333372  0.48666628  0.35208702       0.016
   0.50666686  0.49333314  0.35208702       0.016
   0.49333314  0.50666686  0.35208702       0.016
   0.48666628  0.51333372  0.35208702       0.016
   0.51333372  0.48666628  0.36354351       0.016
   0.50666686  0.49333314  0.36354351       0.016
   0.49333314  0.50666686  0.36354351       0.016
   0.48666628  0.51333372  0.36354351       0.016
   0.51333372  0.48666628  0.38645649       0.016
   0.50666686  0.49333314  0.38645649       0.016
   0.49333314  0.50666686  0.38645649       0.016
   0.48666628  0.51333372  0.38645649       0.016
   0.51333372  0.48666628  0.39791298       0.016
   0.50666686  0.49333314  0.39791298       0.016
   0.49333314  0.50666686  0.39791298       0.016
   0.48666628  0.51333372  0.39791298       0.016

 position of ions in fractional coordinates (direct lattice) 
   0.39979833  0.39979833  0.39979833
   0.60020167  0.60020167  0.60020167
   0.00000000  0.00000000  0.00000000
   0.21048582  0.21048582  0.21048582
   0.78951418  0.78951418  0.78951418

 position of ions in cartesian coordinates  (Angst):
  12.06837915  0.00000000  1.52290741
  18.11778784  0.00000000  2.28628161
   0.00000000  0.00000000  0.00000000
   6.35376011  0.00000000  0.80178027
  23.83240688  0.00000000  3.00740875

 Euler angles ALPHA=     0.0000000  BETA=     0.0000000

 transformation matrix from SAXIS to cartesian coordinates
 ---------------------------------------------------------
     1.0000000 m_x    -0.0000000 m_y     0.0000000 m_z
     0.0000000 m_x     1.0000000 m_y     0.0000000 m_z
    -0.0000000 m_x     0.0000000 m_y     1.0000000 m_z

 transformation matrix from cartesian coordinates to SAXIS
 ---------------------------------------------------------
     1.0000000 m_x     0.0000000 m_y    -0.0000000 m_z
    -0.0000000 m_x     1.0000000 m_y     0.0000000 m_z
     0.0000000 m_x     0.0000000 m_y     1.0000000 m_z




--------------------------------------------------------------------------------------------------------


 k-point  1 :   0.5000 0.5000 0.3750  plane waves:   11492
 k-point  2 :   0.4385 0.4385 0.3164  plane waves:   11490
 k-point  3 :   0.4693 0.4693 0.3457  plane waves:   11488
 k-point  4 :   0.5307 0.5307 0.4043  plane waves:   11480
 k-point  5 :   0.5615 0.5615 0.4336  plane waves:   11480
 k-point  6 :   0.5133 0.4867 0.3750  plane waves:   11484
 k-point  7 :   0.5067 0.4933 0.3750  plane waves:   11474
 k-point  8 :   0.4933 0.5067 0.3750  plane waves:   11474
 k-point  9 :   0.4867 0.5133 0.3750  plane waves:   11484
 k-point 10 :   0.5000 0.5000 0.3521  plane waves:   11472
 k-point 11 :   0.5000 0.5000 0.3635  plane waves:   11488
 k-point 12 :   0.5000 0.5000 0.3865  plane waves:   11472
 k-point 13 :   0.5000 0.5000 0.3979  plane waves:   11480
 k-point 14 :   0.4518 0.4252 0.3164  plane waves:   11488
 k-point 15 :   0.4826 0.4559 0.3457  plane waves:   11476
 k-point 16 :   0.5441 0.5174 0.4043  plane waves:   11476
 k-point 17 :   0.5748 0.5482 0.4336  plane waves:   11476
 k-point 18 :   0.4452 0.4318 0.3164  plane waves:   11484
 k-point 19 :   0.4759 0.4626 0.3457  plane waves:   11486
 k-point 20 :   0.5374 0.5241 0.4043  plane waves:   11470
 k-point 21 :   0.5682 0.5548 0.4336  plane waves:   11472
 k-point 22 :   0.4318 0.4452 0.3164  plane waves:   11484
 k-point 23 :   0.4626 0.4759 0.3457  plane waves:   11486
 k-point 24 :   0.5241 0.5374 0.4043  plane waves:   11470
 k-point 25 :   0.5548 0.5682 0.4336  plane waves:   11472
 k-point 26 :   0.4252 0.4518 0.3164  plane waves:   11488
 k-point 27 :   0.4559 0.4826 0.3457  plane waves:   11476
 k-point 28 :   0.5174 0.5441 0.4043  plane waves:   11476
 k-point 29 :   0.5482 0.5748 0.4336  plane waves:   11476
 k-point 30 :   0.4385 0.4385 0.2935  plane waves:   11508
 k-point 31 :   0.4693 0.4693 0.3228  plane waves:   11492
 k-point 32 :   0.5307 0.5307 0.3814  plane waves:   11478
 k-point 33 :   0.5615 0.5615 0.4107  plane waves:   11466
 k-point 34 :   0.4385 0.4385 0.3049  plane waves:   11494
 k-point 35 :   0.4693 0.4693 0.3342  plane waves:   11484
 k-point 36 :   0.5307 0.5307 0.3928  plane waves:   11478
 k-point 37 :   0.5615 0.5615 0.4221  plane waves:   11474
 k-point 38 :   0.4385 0.4385 0.3279  plane waves:   11498
 k-point 39 :   0.4693 0.4693 0.3572  plane waves:   11496
 k-point 40 :   0.5307 0.5307 0.4158  plane waves:   11478
 k-point 41 :   0.5615 0.5615 0.4451  plane waves:   11476
 k-point 42 :   0.4385 0.4385 0.3393  plane waves:   11506
 k-point 43 :   0.4693 0.4693 0.3686  plane waves:   11482
 k-point 44 :   0.5307 0.5307 0.4272  plane waves:   11474
 k-point 45 :   0.5615 0.5615 0.4565  plane waves:   11472
 k-point 46 :   0.5133 0.4867 0.3521  plane waves:   11476
 k-point 47 :   0.5067 0.4933 0.3521  plane waves:   11474
 k-point 48 :   0.4933 0.5067 0.3521  plane waves:   11474
 k-point 49 :   0.4867 0.5133 0.3521  plane waves:   11476
 k-point 50 :   0.5133 0.4867 0.3635  plane waves:   11462
 k-point 51 :   0.5067 0.4933 0.3635  plane waves:   11474
 k-point 52 :   0.4933 0.5067 0.3635  plane waves:   11474
 k-point 53 :   0.4867 0.5133 0.3635  plane waves:   11462
 k-point 54 :   0.5133 0.4867 0.3865  plane waves:   11488
 k-point 55 :   0.5067 0.4933 0.3865  plane waves:   11484
 k-point 56 :   0.4933 0.5067 0.3865  plane waves:   11484
 k-point 57 :   0.4867 0.5133 0.3865  plane waves:   11488
 k-point 58 :   0.5133 0.4867 0.3979  plane waves:   11490
 k-point 59 :   0.5067 0.4933 0.3979  plane waves:   11482
 k-point 60 :   0.4933 0.5067 0.3979  plane waves:   11482
 k-point 61 :   0.4867 0.5133 0.3979  plane waves:   11490

 maximum and minimum number of plane-waves per node :      5758     5718

 maximum number of plane-waves:     11508
 maximum index in each direction: 
   IXMAX=   20   IYMAX=   20   IZMAX=   20
   IXMIN=  -21   IYMIN=  -21   IZMIN=  -21


 parallel 3D FFT for wavefunctions:
    minimum data exchange during FFTs selected (reduces bandwidth)
 parallel 3D FFT for charge:
    minimum data exchange during FFTs selected (reduces bandwidth)


 total amount of memory used by VASP MPI-rank0   804901. kBytes
=======================================================================

   base      :      30000. kBytes
   nonl-proj :      36720. kBytes
   fftplans  :     182230. kBytes
   grid      :     180182. kBytes
   one-center:         97. kBytes
   wavefun   :     375672. kBytes

     INWAV:  cpu time    0.0000: real time    0.0000
 initial charge density was supplied:
 number of electron      28.0000001 magnetization      -0.0000580     -0.0000594     -0.0000590
 keeping initial charge density in first step


--------------------------------------------------------------------------------------------------------


 Maximum index for augmentation-charges       317341 (set IRDMAX)


--------------------------------------------------------------------------------------------------------


 First call to EWALD:  gamma=   0.318
 Maximum number of real-space cells 4x 4x 4
 Maximum number of reciprocal cells 5x 5x 5

    FEWALD:  cpu time    0.0011: real time    0.0012


--------------------------------------- Iteration      1(   1)  ---------------------------------------


    POTLOK:  cpu time    3.9654: real time    3.9680
    SETDIJ:  cpu time    6.6848: real time    6.7035
    TRIAL :  cpu time  227.3835: real time  227.5864
    CORREC:  cpu time    0.0020: real time    0.0020
    --------------------------------------------
      LOOP:  cpu time  238.2035: real time  238.5045

 eigenvalue-minimisations  : 10736
 total energy-change (2. order) : 0.1343515E+03  (-0.1457846E+04)
 number of electron      28.0000001 magnetization      -0.0000580     -0.0000594     -0.0000590
 augmentation part       28.0000001 magnetization      -0.0000580     -0.0000594     -0.0000590

 Free energy of the ion-electron system (eV)
  ---------------------------------------------------
  alpha Z        PSCENC =         5.99831677
  Ewald energy   TEWEN  =      -983.58522533
  -Hartree energ DENC   =       -59.98562904
  -exchange      EXHF   =         0.00000000
  -V(xc)+E(xc)   XCENC  =      -303.85049003
  PAW double counting   =      1910.19755357    -1561.17602897
  entropy T*S    EENTRO =        -0.00024121
  eigenvalues    EBANDS =       155.31179034
  atomic energy  EATOM  =       971.44149227
  ---------------------------------------------------
  free energy    TOTEN  =       134.35153838 eV

  energy without entropy =      134.35177959  energy(sigma->0) =      134.35165899


--------------------------------------------------------------------------------------------------------




--------------------------------------- Iteration      1(   2)  ---------------------------------------


    TRIAL :  cpu time  258.1161: real time  258.1693
    CORREC:  cpu time    0.0020: real time    0.0020
    --------------------------------------------
      LOOP:  cpu time  258.1191: real time  258.1717

 eigenvalue-minimisations  : 13136
 total energy-change (2. order) :-0.1285769E+03  (-0.1174700E+03)
 number of electron      28.0000001 magnetization      -0.0000580     -0.0000594     -0.0000590
 augmentation part       28.0000001 magnetization      -0.0000580     -0.0000594     -0.0000590

 Free energy of the ion-electron system (eV)
  ---------------------------------------------------
  alpha Z        PSCENC =         5.99831677
  Ewald energy   TEWEN  =      -983.58522533
  -Hartree energ DENC   =       -59.98562904
  -exchange      EXHF   =         0.00000000
  -V(xc)+E(xc)   XCENC  =      -303.85049003
  PAW double counting   =      1910.19755357    -1561.17602897
  entropy T*S    EENTRO =        -0.00019048
  eigenvalues    EBANDS =        26.73485767
  atomic energy  EATOM  =       971.44149227
  ---------------------------------------------------
  free energy    TOTEN  =         5.77465644 eV

  energy without entropy =        5.77484692  energy(sigma->0) =        5.77475168


--------------------------------------------------------------------------------------------------------




--------------------------------------- Iteration      1(   3)  ---------------------------------------


    TRIAL :  cpu time  255.5168: real time  255.8045
    CORREC:  cpu time    0.0008: real time    0.0008
    --------------------------------------------
      LOOP:  cpu time  255.5178: real time  255.8055

 eigenvalue-minimisations  : 12688
 total energy-change (2. order) :-0.1201756E+02  (-0.1169472E+02)
 number of electron      28.0000001 magnetization      -0.0000580     -0.0000594     -0.0000590
 augmentation part       28.0000001 magnetization      -0.0000580     -0.0000594     -0.0000590

 Free energy of the ion-electron system (eV)
  ---------------------------------------------------
  alpha Z        PSCENC =         5.99831677
  Ewald energy   TEWEN  =      -983.58522533
  -Hartree energ DENC   =       -59.98562904
  -exchange      EXHF   =         0.00000000
  -V(xc)+E(xc)   XCENC  =      -303.85049003
  PAW double counting   =      1910.19755357    -1561.17602897
  entropy T*S    EENTRO =        -0.00000000
  eigenvalues    EBANDS =        14.71710259
  atomic energy  EATOM  =       971.44149227
  ---------------------------------------------------
  free energy    TOTEN  =        -6.24290816 eV

  energy without entropy =       -6.24290816  energy(sigma->0) =       -6.24290816


--------------------------------------------------------------------------------------------------------




--------------------------------------- Iteration      1(   4)  ---------------------------------------


    TRIAL :  cpu time  260.4276: real time  261.6217
    CORREC:  cpu time    0.0008: real time    0.0008
    --------------------------------------------
      LOOP:  cpu time  260.4286: real time  261.6227

 eigenvalue-minimisations  : 13048
 total energy-change (2. order) :-0.3322537E+00  (-0.3319481E+00)
 number of electron      28.0000001 magnetization      -0.0000580     -0.0000594     -0.0000590
 augmentation part       28.0000001 magnetization      -0.0000580     -0.0000594     -0.0000590

 Free energy of the ion-electron system (eV)
  ---------------------------------------------------
  alpha Z        PSCENC =         5.99831677
  Ewald energy   TEWEN  =      -983.58522533
  -Hartree energ DENC   =       -59.98562904
  -exchange      EXHF   =         0.00000000
  -V(xc)+E(xc)   XCENC  =      -303.85049003
  PAW double counting   =      1910.19755357    -1561.17602897
  entropy T*S    EENTRO =        -0.00000000
  eigenvalues    EBANDS =        14.38484886
  atomic energy  EATOM  =       971.44149227
  ---------------------------------------------------
  free energy    TOTEN  =        -6.57516189 eV

  energy without entropy =       -6.57516189  energy(sigma->0) =       -6.57516189


--------------------------------------------------------------------------------------------------------




--------------------------------------- Iteration      1(   5)  ---------------------------------------


    TRIAL :  cpu time  249.7099: real time  249.9528
    CORREC:  cpu time    0.0007: real time    0.0007
    --------------------------------------------
      LOOP:  cpu time  249.7108: real time  249.9537

 eigenvalue-minimisations  : 12200
 total energy-change (2. order) :-0.6222585E-02  (-0.6222207E-02)
 number of electron      28.0000001 magnetization      -0.0000580     -0.0000594     -0.0000590
 augmentation part       28.0000001 magnetization      -0.0000580     -0.0000594     -0.0000590

 Free energy of the ion-electron system (eV)
  ---------------------------------------------------
  alpha Z        PSCENC =         5.99831677
  Ewald energy   TEWEN  =      -983.58522533
  -Hartree energ DENC   =       -59.98562904
  -exchange      EXHF   =         0.00000000
  -V(xc)+E(xc)   XCENC  =      -303.85049003
  PAW double counting   =      1910.19755357    -1561.17602897
  entropy T*S    EENTRO =        -0.00000000
  eigenvalues    EBANDS =        14.37862628
  atomic energy  EATOM  =       971.44149227
  ---------------------------------------------------
  free energy    TOTEN  =        -6.58138448 eV

  energy without entropy =       -6.58138448  energy(sigma->0) =       -6.58138448


--------------------------------------------------------------------------------------------------------




--------------------------------------- Iteration      1(   6)  ---------------------------------------


    TRIAL :  cpu time  168.4564: real time  168.4704
    CORREC:  cpu time   44.5837: real time   44.5897
    --------------------------------------------
      LOOP:  cpu time  213.0404: real time  213.0604

 eigenvalue-minimisations  :     0
 total energy-change (2. order) :-0.9094947E-12  (-0.2070895E-03)
 number of electron      28.0000001 magnetization      -0.0000580     -0.0000594     -0.0000590
 augmentation part       28.0000001 magnetization      -0.0000580     -0.0000594     -0.0000590

 Free energy of the ion-electron system (eV)
  ---------------------------------------------------
  alpha Z        PSCENC =         5.99831677
  Ewald energy   TEWEN  =      -983.58522533
  -Hartree energ DENC   =       -59.98562904
  -exchange      EXHF   =         0.00000000
  -V(xc)+E(xc)   XCENC  =      -303.85049003
  PAW double counting   =      1910.19755357    -1561.17602897
  entropy T*S    EENTRO =        -0.00000000
  eigenvalues    EBANDS =        14.37862628
  atomic energy  EATOM  =       971.44149227
  ---------------------------------------------------
  free energy    TOTEN  =        -6.58138448 eV

  energy without entropy =       -6.58138448  energy(sigma->0) =       -6.58138448


--------------------------------------------------------------------------------------------------------




--------------------------------------- Iteration      1(   7)  ---------------------------------------


    TRIAL :  cpu time  168.6153: real time  168.6286
    CORREC:  cpu time   44.6920: real time   44.6967
    --------------------------------------------
      LOOP:  cpu time  213.3083: real time  213.3258

 eigenvalue-minimisations  :     0
 total energy-change (2. order) :-0.2070894E-03  (-0.5414541E-04)
 number of electron      28.0000001 magnetization      -0.0000580     -0.0000594     -0.0000590
 augmentation part       28.0000001 magnetization      -0.0000580     -0.0000594     -0.0000590

 Free energy of the ion-electron system (eV)
  ---------------------------------------------------
  alpha Z        PSCENC =         5.99831677
  Ewald energy   TEWEN  =      -983.58522533
  -Hartree energ DENC   =       -59.98562904
  -exchange      EXHF   =         0.00000000
  -V(xc)+E(xc)   XCENC  =      -303.85049003
  PAW double counting   =      1910.19755357    -1561.17602897
  entropy T*S    EENTRO =        -0.00000000
  eigenvalues    EBANDS =        14.37841919
  atomic energy  EATOM  =       971.44149227
  ---------------------------------------------------
  free energy    TOTEN  =        -6.58159157 eV

  energy without entropy =       -6.58159157  energy(sigma->0) =       -6.58159157


--------------------------------------------------------------------------------------------------------




--------------------------------------- Iteration      1(   8)  ---------------------------------------


    TRIAL :  cpu time  167.9273: real time  167.9977
    CORREC:  cpu time   44.5741: real time   44.7125
    --------------------------------------------
      LOOP:  cpu time  212.5025: real time  212.7105

 eigenvalue-minimisations  :     0
 total energy-change (2. order) :-0.5414525E-04  (-0.1743748E-04)
 number of electron      28.0000001 magnetization      -0.0000580     -0.0000594     -0.0000590
 augmentation part       28.0000001 magnetization      -0.0000580     -0.0000594     -0.0000590

 Free energy of the ion-electron system (eV)
  ---------------------------------------------------
  alpha Z        PSCENC =         5.99831677
  Ewald energy   TEWEN  =      -983.58522533
  -Hartree energ DENC   =       -59.98562904
  -exchange      EXHF   =         0.00000000
  -V(xc)+E(xc)   XCENC  =      -303.85049003
  PAW double counting   =      1910.19755357    -1561.17602897
  entropy T*S    EENTRO =        -0.00000000
  eigenvalues    EBANDS =        14.37836504
  atomic energy  EATOM  =       971.44149227
  ---------------------------------------------------
  free energy    TOTEN  =        -6.58164571 eV

  energy without entropy =       -6.58164571  energy(sigma->0) =       -6.58164571


--------------------------------------------------------------------------------------------------------




--------------------------------------- Iteration      1(   9)  ---------------------------------------


    TRIAL :  cpu time  168.7202: real time  168.7321
    CORREC:  cpu time   44.4784: real time   44.4828
    --------------------------------------------
      LOOP:  cpu time  213.1990: real time  213.2153

 eigenvalue-minimisations  :     0
 total energy-change (2. order) :-0.1743736E-04  (-0.1473939E-05)
 number of electron      28.0000001 magnetization      -0.0000580     -0.0000594     -0.0000590
 augmentation part       28.0000001 magnetization      -0.0000580     -0.0000594     -0.0000590

 Free energy of the ion-electron system (eV)
  ---------------------------------------------------
  alpha Z        PSCENC =         5.99831677
  Ewald energy   TEWEN  =      -983.58522533
  -Hartree energ DENC   =       -59.98562904
  -exchange      EXHF   =         0.00000000
  -V(xc)+E(xc)   XCENC  =      -303.85049003
  PAW double counting   =      1910.19755357    -1561.17602897
  entropy T*S    EENTRO =        -0.00000000
  eigenvalues    EBANDS =        14.37834761
  atomic energy  EATOM  =       971.44149227
  ---------------------------------------------------
  free energy    TOTEN  =        -6.58166315 eV

  energy without entropy =       -6.58166315  energy(sigma->0) =       -6.58166315


--------------------------------------------------------------------------------------------------------




--------------------------------------- Iteration      1(  10)  ---------------------------------------


    TRIAL :  cpu time  168.1997: real time  168.2320
    CORREC:  cpu time   44.6933: real time   44.6978
    --------------------------------------------
      LOOP:  cpu time  212.8934: real time  212.9302

 eigenvalue-minimisations  :     0
 total energy-change (2. order) :-0.1473929E-05  (-0.1180548E-06)
 number of electron      28.0000001 magnetization      -0.0000580     -0.0000594     -0.0000590
 augmentation part       28.0000001 magnetization      -0.0000580     -0.0000594     -0.0000590

 Free energy of the ion-electron system (eV)
  ---------------------------------------------------
  alpha Z        PSCENC =         5.99831677
  Ewald energy   TEWEN  =      -983.58522533
  -Hartree energ DENC   =       -59.98562904
  -exchange      EXHF   =         0.00000000
  -V(xc)+E(xc)   XCENC  =      -303.85049003
  PAW double counting   =      1910.19755357    -1561.17602897
  entropy T*S    EENTRO =        -0.00000000
  eigenvalues    EBANDS =        14.37834613
  atomic energy  EATOM  =       971.44149227
  ---------------------------------------------------
  free energy    TOTEN  =        -6.58166462 eV

  energy without entropy =       -6.58166462  energy(sigma->0) =       -6.58166462


--------------------------------------------------------------------------------------------------------




--------------------------------------- Iteration      1(  11)  ---------------------------------------


    TRIAL :  cpu time  168.5112: real time  168.5262
    CORREC:  cpu time   44.8069: real time   44.8113
    --------------------------------------------
      LOOP:  cpu time  213.3186: real time  213.3380

 eigenvalue-minimisations  :     0
 total energy-change (2. order) :-0.1180410E-06  (-0.2366860E-07)
 number of electron      28.0000001 magnetization      -0.0000580     -0.0000594     -0.0000590
 augmentation part       28.0000001 magnetization      -0.0000580     -0.0000594     -0.0000590

 Free energy of the ion-electron system (eV)
  ---------------------------------------------------
  alpha Z        PSCENC =         5.99831677
  Ewald energy   TEWEN  =      -983.58522533
  -Hartree energ DENC   =       -59.98562904
  -exchange      EXHF   =         0.00000000
  -V(xc)+E(xc)   XCENC  =      -303.85049003
  PAW double counting   =      1910.19755357    -1561.17602897
  entropy T*S    EENTRO =        -0.00000000
  eigenvalues    EBANDS =        14.37834601
  atomic energy  EATOM  =       971.44149227
  ---------------------------------------------------
  free energy    TOTEN  =        -6.58166474 eV

  energy without entropy =       -6.58166474  energy(sigma->0) =       -6.58166474


--------------------------------------------------------------------------------------------------------




--------------------------------------- Iteration      1(  12)  ---------------------------------------


    TRIAL :  cpu time  168.1791: real time  168.2682
    CORREC:  cpu time   44.0168: real time   44.0239
    EDDIAG:  cpu time   68.7140: real time   68.7213
    --------------------------------------------
      LOOP:  cpu time  280.9104: real time  281.0139

 eigenvalue-minimisations  :     0
 total energy-change (2. order) :-0.2246020E-07  (-0.5566348E-08)
 number of electron      28.0000001 magnetization      -0.0000580     -0.0000594     -0.0000590
 augmentation part       28.0000001 magnetization      -0.0000580     -0.0000594     -0.0000590

 Free energy of the ion-electron system (eV)
  ---------------------------------------------------
  alpha Z        PSCENC =         5.99831677
  Ewald energy   TEWEN  =      -983.58522533
  -Hartree energ DENC   =       -59.98562904
  -exchange      EXHF   =         0.00000000
  -V(xc)+E(xc)   XCENC  =      -303.85049003
  PAW double counting   =      1910.19755357    -1561.17602897
  entropy T*S    EENTRO =        -0.00000000
  eigenvalues    EBANDS =        14.37834599
  atomic energy  EATOM  =       971.44149227
  ---------------------------------------------------
  free energy    TOTEN  =        -6.58166476 eV

  energy without entropy =       -6.58166476  energy(sigma->0) =       -6.58166476


--------------------------------------------------------------------------------------------------------


  average scaling for gradient   1.3227


 average (electrostatic) potential at core
  the test charge radii are     1.4024  1.1897
  (the norm of the test charge is              1.0000)
       1 -61.7622       2 -61.7622       3 -88.6317       4 -88.8692       5 -88.8692



 E-fermi :   5.4276     XC(G=0):  -9.1625     alpha+bet :-10.3225


 k-point     1 :       0.5000    0.5000    0.3750
  band No.  band energies     occupation 
      1      -7.3803      1.00000
      2      -7.3803      1.00000
      3      -7.1197      1.00000
      4      -7.1197      1.00000
      5      -5.2664      1.00000
      6      -5.2664      1.00000
      7      -4.0811      1.00000
      8      -4.0811      1.00000
      9      -2.5394      1.00000
     10      -2.5394      1.00000
     11       2.3286      1.00000
     12       2.3287      1.00000
     13       2.4937      1.00000
     14       2.4937      1.00000
     15       3.0296      1.00000
     16       3.0296      1.00000
     17       3.5431      1.00000
     18       3.5431      1.00000
     19       3.7070      1.00000
     20       3.7070      1.00000
     21       3.9434      1.00000
     22       3.9434      1.00000
     23       4.5708      1.00000
     24       4.5708      1.00000
     25       4.7189      1.00000
     26       4.7189      1.00000
     27       5.3456      1.00000
     28       5.3456      1.00000
     29       5.5468      0.00000
     30       5.5468      0.00000
     31       6.4791      0.00000
     32       6.4791      0.00000
     33       6.7876      0.00000
     34       6.7876      0.00000
     35       7.4299      0.00000
     36       7.4299      0.00000
     37       8.1814      0.00000
     38       8.1814      0.00000
     39       8.3948      0.00000
     40       8.3948      0.00000
     41      10.3747      0.00000
     42      10.3747      0.00000
     43      10.6103      0.00000
     44      10.6103      0.00000
     45      11.0109      0.00000
     46      11.0109      0.00000
     47      11.3309      0.00000
     48      11.3310      0.00000
     49      11.8789      0.00000
     50      11.8790      0.00000
     51      12.5754      0.00000
     52      12.5754      0.00000
     53      12.7007      0.00000
     54      12.7008      0.00000
     55      12.9353      0.00000
     56      12.9353      0.00000
     57      13.1473      0.00000
     58      13.1473      0.00000
     59      13.2676      0.00000
     60      13.2677      0.00000
     61      13.7555      0.00000
     62      13.7556      0.00000
     63      14.0111      0.00000
     64      14.0112      0.00000
     65      14.5275      0.00000
     66      14.5275      0.00000
     67      14.9800      0.00000
     68      14.9800      0.00000
     69      15.3426      0.00000
     70      15.3426      0.00000
     71      15.8453      0.00000
     72      15.8453      0.00000
     73      16.8205      0.00000
     74      16.8205      0.00000
     75      16.9959      0.00000
     76      16.9960      0.00000
     77      17.7451      0.00000
     78      17.7451      0.00000
     79      18.1399      0.00000
     80      18.1399      0.00000
     81      18.3103      0.00000
     82      18.3103      0.00000
     83      18.8104      0.00000
     84      18.8106      0.00000
     85      19.0020      0.00000
     86      19.0027      0.00000
     87      19.6132      0.00000
     88      19.6420      0.00000

 k-point     2 :       0.4385    0.4385    0.3164
  band No.  band energies     occupation 
      1      -7.4059      1.00000
      2      -7.4059      1.00000
      3      -7.0949      1.00000
      4      -7.0949      1.00000
      5      -5.3106      1.00000
      6      -5.3106      1.00000
      7      -4.0254      1.00000
      8      -4.0254      1.00000
      9      -2.5553      1.00000
     10      -2.5553      1.00000
     11       2.3768      1.00000
     12       2.3768      1.00000
     13       2.5048      1.00000
     14       2.5048      1.00000
     15       3.0152      1.00000
     16       3.0152      1.00000
     17       3.5475      1.00000
     18       3.5475      1.00000
     19       3.6929      1.00000
     20       3.6929      1.00000
     21       3.9563      1.00000
     22       3.9564      1.00000
     23       4.5736      1.00000
     24       4.5736      1.00000
     25       4.8183      1.00000
     26       4.8183      1.00000
     27       5.3174      1.00000
     28       5.3174      1.00000
     29       5.5524      0.00000
     30       5.5524      0.00000
     31       6.3845      0.00000
     32       6.3845      0.00000
     33       6.7630      0.00000
     34       6.7630      0.00000
     35       7.4367      0.00000
     36       7.4367      0.00000
     37       8.1935      0.00000
     38       8.1935      0.00000
     39       8.4002      0.00000
     40       8.4002      0.00000
     41      10.4349      0.00000
     42      10.4350      0.00000
     43      10.5511      0.00000
     44      10.5511      0.00000
     45      11.0010      0.00000
     46      11.0011      0.00000
     47      11.2816      0.00000
     48      11.2816      0.00000
     49      12.0620      0.00000
     50      12.0620      0.00000
     51      12.4890      0.00000
     52      12.4890      0.00000
     53      12.8900      0.00000
     54      12.8900      0.00000
     55      12.9671      0.00000
     56      12.9671      0.00000
     57      12.9921      0.00000
     58      12.9922      0.00000
     59      13.0670      0.00000
     60      13.0670      0.00000
     61      13.7574      0.00000
     62      13.7574      0.00000
     63      13.7702      0.00000
     64      13.7702      0.00000
     65      14.7471      0.00000
     66      14.7471      0.00000
     67      15.1157      0.00000
     68      15.1157      0.00000
     69      15.5244      0.00000
     70      15.5244      0.00000
     71      15.5901      0.00000
     72      15.5901      0.00000
     73      16.5958      0.00000
     74      16.5958      0.00000
     75      16.7161      0.00000
     76      16.7161      0.00000
     77      18.0699      0.00000
     78      18.0699      0.00000
     79      18.3820      0.00000
     80      18.3820      0.00000
     81      18.5475      0.00000
     82      18.5476      0.00000
     83      18.6582      0.00000
     84      18.6587      0.00000
     85      19.2055      0.00000
     86      19.2413      0.00000
     87      19.3520      0.00000
     88      19.4140      0.00000

 k-point     3 :       0.4693    0.4693    0.3457
  band No.  band energies     occupation 
      1      -7.3917      1.00000
      2      -7.3917      1.00000
      3      -7.1098      1.00000
      4      -7.1098      1.00000
      5      -5.2849      1.00000
      6      -5.2849      1.00000
      7      -4.0580      1.00000
      8      -4.0580      1.00000
      9      -2.5449      1.00000
     10      -2.5449      1.00000
     11       2.3527      1.00000
     12       2.3527      1.00000
     13       2.5004      1.00000
     14       2.5004      1.00000
     15       3.0209      1.00000
     16       3.0209      1.00000
     17       3.5457      1.00000
     18       3.5457      1.00000
     19       3.7003      1.00000
     20       3.7003      1.00000
     21       3.9458      1.00000
     22       3.9458      1.00000
     23       4.5775      1.00000
     24       4.5775      1.00000
     25       4.7668      1.00000
     26       4.7668      1.00000
     27       5.3361      1.00000
     28       5.3361      1.00000
     29       5.5440      0.00000
     30       5.5440      0.00000
     31       6.4315      0.00000
     32       6.4315      0.00000
     33       6.7732      0.00000
     34       6.7732      0.00000
     35       7.4329      0.00000
     36       7.4329      0.00000
     37       8.1904      0.00000
     38       8.1904      0.00000
     39       8.3999      0.00000
     40       8.3999      0.00000
     41      10.4116      0.00000
     42      10.4117      0.00000
     43      10.5775      0.00000
     44      10.5776      0.00000
     45      10.9992      0.00000
     46      10.9992      0.00000
     47      11.3041      0.00000
     48      11.3041      0.00000
     49      11.9698      0.00000
     50      11.9699      0.00000
     51      12.5388      0.00000
     52      12.5389      0.00000
     53      12.8018      0.00000
     54      12.8019      0.00000
     55      12.9378      0.00000
     56      12.9378      0.00000
     57      13.0608      0.00000
     58      13.0608      0.00000
     59      13.1590      0.00000
     60      13.1590      0.00000
     61      13.7563      0.00000
     62      13.7563      0.00000
     63      13.8860      0.00000
     64      13.8860      0.00000
     65      14.6395      0.00000
     66      14.6395      0.00000
     67      15.0578      0.00000
     68      15.0578      0.00000
     69      15.4593      0.00000
     70      15.4593      0.00000
     71      15.6920      0.00000
     72      15.6920      0.00000
     73      16.7224      0.00000
     74      16.7225      0.00000
     75      16.8331      0.00000
     76      16.8331      0.00000
     77      17.9082      0.00000
     78      17.9082      0.00000
     79      18.3243      0.00000
     80      18.3244      0.00000
     81      18.4751      0.00000
     82      18.4753      0.00000
     83      18.6322      0.00000
     84      18.6325      0.00000
     85      19.1704      0.00000
     86      19.1750      0.00000
     87      19.4356      0.00000
     88      19.4411      0.00000

 k-point     4 :       0.5307    0.5307    0.4043
  band No.  band energies     occupation 
      1      -7.3729      1.00000
      2      -7.3729      1.00000
      3      -7.1234      1.00000
      4      -7.1234      1.00000
      5      -5.2562      1.00000
      6      -5.2562      1.00000
      7      -4.0937      1.00000
      8      -4.0937      1.00000
      9      -2.5387      1.00000
     10      -2.5387      1.00000
     11       2.3051      1.00000
     12       2.3051      1.00000
     13       2.4848      1.00000
     14       2.4849      1.00000
     15       3.0405      1.00000
     16       3.0405      1.00000
     17       3.5385      1.00000
     18       3.5385      1.00000
     19       3.7125      1.00000
     20       3.7125      1.00000
     21       3.9503      1.00000
     22       3.9503      1.00000
     23       4.5487      1.00000
     24       4.5487      1.00000
     25       4.6814      1.00000
     26       4.6815      1.00000
     27       5.3442      1.00000
     28       5.3442      1.00000
     29       5.5617      0.00000
     30       5.5617      0.00000
     31       6.5256      0.00000
     32       6.5256      0.00000
     33       6.8062      0.00000
     34       6.8062      0.00000
     35       7.4285      0.00000
     36       7.4285      0.00000
     37       8.1671      0.00000
     38       8.1671      0.00000
     39       8.3849      0.00000
     40       8.3849      0.00000
     41      10.3294      0.00000
     42      10.3294      0.00000
     43      10.6473      0.00000
     44      10.6474      0.00000
     45      11.0312      0.00000
     46      11.0312      0.00000
     47      11.3619      0.00000
     48      11.3620      0.00000
     49      11.7931      0.00000
     50      11.7932      0.00000
     51      12.5858      0.00000
     52      12.5859      0.00000
     53      12.6096      0.00000
     54      12.6097      0.00000
     55      12.9723      0.00000
     56      12.9723      0.00000
     57      13.2401      0.00000
     58      13.2401      0.00000
     59      13.3784      0.00000
     60      13.3785      0.00000
     61      13.7593      0.00000
     62      13.7593      0.00000
     63      14.1377      0.00000
     64      14.1378      0.00000
     65      14.4193      0.00000
     66      14.4193      0.00000
     67      14.8876      0.00000
     68      14.8876      0.00000
     69      15.2257      0.00000
     70      15.2257      0.00000
     71      15.9922      0.00000
     72      15.9923      0.00000
     73      16.9278      0.00000
     74      16.9278      0.00000
     75      17.1371      0.00000
     76      17.1372      0.00000
     77      17.6053      0.00000
     78      17.6053      0.00000
     79      17.9515      0.00000
     80      17.9516      0.00000
     81      18.1471      0.00000
     82      18.1472      0.00000
     83      18.8089      0.00000
     84      18.8090      0.00000
     85      19.0111      0.00000
     86      19.0112      0.00000
     87      19.8168      0.00000
     88      19.8788      0.00000

 k-point     5 :       0.5615    0.5615    0.4336
  band No.  band energies     occupation 
      1      -7.3702      1.00000
      2      -7.3702      1.00000
      3      -7.1200      1.00000
      4      -7.1200      1.00000
      5      -5.2548      1.00000
      6      -5.2548      1.00000
      7      -4.0952      1.00000
      8      -4.0952      1.00000
      9      -2.5430      1.00000
     10      -2.5430      1.00000
     11       2.2827      1.00000
     12       2.2827      1.00000
     13       2.4740      1.00000
     14       2.4740      1.00000
     15       3.0533      1.00000
     16       3.0533      1.00000
     17       3.5308      1.00000
     18       3.5308      1.00000
     19       3.7162      1.00000
     20       3.7162      1.00000
     21       3.9667      1.00000
     22       3.9667      1.00000
     23       4.5114      1.00000
     24       4.5114      1.00000
     25       4.6566      1.00000
     26       4.6566      1.00000
     27       5.3329      1.00000
     28       5.3329      1.00000
     29       5.5870      0.00000
     30       5.5870      0.00000
     31       6.5693      0.00000
     32       6.5693      0.00000
     33       6.8289      0.00000
     34       6.8289      0.00000
     35       7.4295      0.00000
     36       7.4295      0.00000
     37       8.1478      0.00000
     38       8.1478      0.00000
     39       8.3702      0.00000
     40       8.3702      0.00000
     41      10.2797      0.00000
     42      10.2797      0.00000
     43      10.6878      0.00000
     44      10.6879      0.00000
     45      11.0539      0.00000
     46      11.0539      0.00000
     47      11.3969      0.00000
     48      11.3969      0.00000
     49      11.7173      0.00000
     50      11.7173      0.00000
     51      12.4971      0.00000
     52      12.4971      0.00000
     53      12.6118      0.00000
     54      12.6119      0.00000
     55      13.0398      0.00000
     56      13.0398      0.00000
     57      13.3389      0.00000
     58      13.3389      0.00000
     59      13.4852      0.00000
     60      13.4853      0.00000
     61      13.7648      0.00000
     62      13.7649      0.00000
     63      14.2569      0.00000
     64      14.2570      0.00000
     65      14.3289      0.00000
     66      14.3289      0.00000
     67      14.7875      0.00000
     68      14.7875      0.00000
     69      15.1094      0.00000
     70      15.1094      0.00000
     71      16.1254      0.00000
     72      16.1254      0.00000
     73      17.0334      0.00000
     74      17.0334      0.00000
     75      17.1992      0.00000
     76      17.1992      0.00000
     77      17.5304      0.00000
     78      17.5304      0.00000
     79      17.7675      0.00000
     80      17.7675      0.00000
     81      18.0199      0.00000
     82      18.0199      0.00000
     83      18.6336      0.00000
     84      18.6336      0.00000
     85      19.2050      0.00000
     86      19.2054      0.00000
     87      20.0058      0.00000
     88      20.1264      0.00000

 k-point     6 :       0.5133    0.4867    0.3750
  band No.  band energies     occupation 
      1      -7.3759      1.00000
      2      -7.3759      1.00000
      3      -7.1156      1.00000
      4      -7.1156      1.00000
      5      -5.2643      1.00000
      6      -5.2643      1.00000
      7      -4.0822      1.00000
      8      -4.0822      1.00000
      9      -2.5476      1.00000
     10      -2.5476      1.00000
     11       2.3158      1.00000
     12       2.3158      1.00000
     13       2.4917      1.00000
     14       2.4917      1.00000
     15       2.9721      1.00000
     16       2.9721      1.00000
     17       3.5513      1.00000
     18       3.5513      1.00000
     19       3.7585      1.00000
     20       3.7585      1.00000
     21       3.9489      1.00000
     22       3.9489      1.00000
     23       4.5298      1.00000
     24       4.5298      1.00000
     25       4.7031      1.00000
     26       4.7031      1.00000
     27       5.1992      1.00000
     28       5.1992      1.00000
     29       5.7101      0.00000
     30       5.7101      0.00000
     31       6.4760      0.00000
     32       6.4761      0.00000
     33       6.8251      0.00000
     34       6.8251      0.00000
     35       7.4169      0.00000
     36       7.4169      0.00000
     37       8.1885      0.00000
     38       8.1885      0.00000
     39       8.4014      0.00000
     40       8.4014      0.00000
     41      10.3850      0.00000
     42      10.3850      0.00000
     43      10.5834      0.00000
     44      10.5834      0.00000
     45      11.0104      0.00000
     46      11.0104      0.00000
     47      11.3575      0.00000
     48      11.3575      0.00000
     49      11.8108      0.00000
     50      11.8109      0.00000
     51      12.5608      0.00000
     52      12.5608      0.00000
     53      12.7723      0.00000
     54      12.7723      0.00000
     55      12.9349      0.00000
     56      12.9350      0.00000
     57      13.1409      0.00000
     58      13.1409      0.00000
     59      13.3277      0.00000
     60      13.3278      0.00000
     61      13.7694      0.00000
     62      13.7695      0.00000
     63      14.0542      0.00000
     64      14.0542      0.00000
     65      14.5118      0.00000
     66      14.5118      0.00000
     67      14.8675      0.00000
     68      14.8675      0.00000
     69      15.4885      0.00000
     70      15.4885      0.00000
     71      15.8468      0.00000
     72      15.8469      0.00000
     73      16.8367      0.00000
     74      16.8367      0.00000
     75      17.0139      0.00000
     76      17.0140      0.00000
     77      17.7154      0.00000
     78      17.7154      0.00000
     79      18.0059      0.00000
     80      18.0060      0.00000
     81      18.4272      0.00000
     82      18.4272      0.00000
     83      18.7704      0.00000
     84      18.7704      0.00000
     85      19.0430      0.00000
     86      19.0479      0.00000
     87      19.4669      0.00000
     88      19.4703      0.00000

 k-point     7 :       0.5067    0.4933    0.3750
  band No.  band energies     occupation 
      1      -7.3792      1.00000
      2      -7.3792      1.00000
      3      -7.1187      1.00000
      4      -7.1187      1.00000
      5      -5.2659      1.00000
      6      -5.2659      1.00000
      7      -4.0814      1.00000
      8      -4.0814      1.00000
      9      -2.5414      1.00000
     10      -2.5414      1.00000
     11       2.3255      1.00000
     12       2.3255      1.00000
     13       2.4932      1.00000
     14       2.4932      1.00000
     15       3.0138      1.00000
     16       3.0138      1.00000
     17       3.5461      1.00000
     18       3.5461      1.00000
     19       3.7206      1.00000
     20       3.7206      1.00000
     21       3.9446      1.00000
     22       3.9446      1.00000
     23       4.5611      1.00000
     24       4.5611      1.00000
     25       4.7140      1.00000
     26       4.7140      1.00000
     27       5.2933      1.00000
     28       5.2933      1.00000
     29       5.6035      0.00000
     30       5.6035      0.00000
     31       6.4784      0.00000
     32       6.4784      0.00000
     33       6.7972      0.00000
     34       6.7972      0.00000
     35       7.4265      0.00000
     36       7.4265      0.00000
     37       8.1832      0.00000
     38       8.1832      0.00000
     39       8.3965      0.00000
     40       8.3965      0.00000
     41      10.3774      0.00000
     42      10.3774      0.00000
     43      10.6032      0.00000
     44      10.6033      0.00000
     45      11.0108      0.00000
     46      11.0108      0.00000
     47      11.3378      0.00000
     48      11.3378      0.00000
     49      11.8606      0.00000
     50      11.8607      0.00000
     51      12.5712      0.00000
     52      12.5712      0.00000
     53      12.7204      0.00000
     54      12.7204      0.00000
     55      12.9339      0.00000
     56      12.9339      0.00000
     57      13.1481      0.00000
     58      13.1481      0.00000
     59      13.2816      0.00000
     60      13.2816      0.00000
     61      13.7584      0.00000
     62      13.7584      0.00000
     63      14.0227      0.00000
     64      14.0227      0.00000
     65      14.5243      0.00000
     66      14.5243      0.00000
     67      14.9424      0.00000
     68      14.9424      0.00000
     69      15.3878      0.00000
     70      15.3878      0.00000
     71      15.8456      0.00000
     72      15.8456      0.00000
     73      16.8246      0.00000
     74      16.8246      0.00000
     75      17.0004      0.00000
     76      17.0004      0.00000
     77      17.7388      0.00000
     78      17.7389      0.00000
     79      18.0876      0.00000
     80      18.0876      0.00000
     81      18.3594      0.00000
     82      18.3594      0.00000
     83      18.7969      0.00000
     84      18.7972      0.00000
     85      19.0132      0.00000
     86      19.0169      0.00000
     87      19.5670      0.00000
     88      19.5758      0.00000

 k-point     8 :       0.4933    0.5067    0.3750
  band No.  band energies     occupation 
      1      -7.3792      1.00000
      2      -7.3792      1.00000
      3      -7.1187      1.00000
      4      -7.1187      1.00000
      5      -5.2659      1.00000
      6      -5.2659      1.00000
      7      -4.0814      1.00000
      8      -4.0814      1.00000
      9      -2.5414      1.00000
     10      -2.5414      1.00000
     11       2.3255      1.00000
     12       2.3255      1.00000
     13       2.4932      1.00000
     14       2.4932      1.00000
     15       3.0138      1.00000
     16       3.0138      1.00000
     17       3.5461      1.00000
     18       3.5461      1.00000
     19       3.7206      1.00000
     20       3.7206      1.00000
     21       3.9446      1.00000
     22       3.9446      1.00000
     23       4.5611      1.00000
     24       4.5611      1.00000
     25       4.7140      1.00000
     26       4.7140      1.00000
     27       5.2933      1.00000
     28       5.2933      1.00000
     29       5.6035      0.00000
     30       5.6035      0.00000
     31       6.4784      0.00000
     32       6.4784      0.00000
     33       6.7972      0.00000
     34       6.7972      0.00000
     35       7.4265      0.00000
     36       7.4265      0.00000
     37       8.1832      0.00000
     38       8.1832      0.00000
     39       8.3965      0.00000
     40       8.3965      0.00000
     41      10.3774      0.00000
     42      10.3774      0.00000
     43      10.6032      0.00000
     44      10.6033      0.00000
     45      11.0108      0.00000
     46      11.0108      0.00000
     47      11.3378      0.00000
     48      11.3378      0.00000
     49      11.8606      0.00000
     50      11.8607      0.00000
     51      12.5712      0.00000
     52      12.5712      0.00000
     53      12.7204      0.00000
     54      12.7204      0.00000
     55      12.9339      0.00000
     56      12.9339      0.00000
     57      13.1481      0.00000
     58      13.1481      0.00000
     59      13.2816      0.00000
     60      13.2816      0.00000
     61      13.7584      0.00000
     62      13.7584      0.00000
     63      14.0227      0.00000
     64      14.0227      0.00000
     65      14.5243      0.00000
     66      14.5243      0.00000
     67      14.9424      0.00000
     68      14.9424      0.00000
     69      15.3878      0.00000
     70      15.3878      0.00000
     71      15.8456      0.00000
     72      15.8456      0.00000
     73      16.8246      0.00000
     74      16.8246      0.00000
     75      17.0004      0.00000
     76      17.0004      0.00000
     77      17.7388      0.00000
     78      17.7389      0.00000
     79      18.0876      0.00000
     80      18.0876      0.00000
     81      18.3594      0.00000
     82      18.3594      0.00000
     83      18.7969      0.00000
     84      18.7970      0.00000
     85      19.0129      0.00000
     86      19.0136      0.00000
     87      19.5718      0.00000
     88      19.5856      0.00000

 k-point     9 :       0.4867    0.5133    0.3750
  band No.  band energies     occupation 
      1      -7.3759      1.00000
      2      -7.3759      1.00000
      3      -7.1156      1.00000
      4      -7.1156      1.00000
      5      -5.2643      1.00000
      6      -5.2643      1.00000
      7      -4.0822      1.00000
      8      -4.0822      1.00000
      9      -2.5476      1.00000
     10      -2.5476      1.00000
     11       2.3158      1.00000
     12       2.3158      1.00000
     13       2.4917      1.00000
     14       2.4917      1.00000
     15       2.9721      1.00000
     16       2.9721      1.00000
     17       3.5513      1.00000
     18       3.5513      1.00000
     19       3.7585      1.00000
     20       3.7585      1.00000
     21       3.9489      1.00000
     22       3.9489      1.00000
     23       4.5298      1.00000
     24       4.5298      1.00000
     25       4.7031      1.00000
     26       4.7031      1.00000
     27       5.1992      1.00000
     28       5.1992      1.00000
     29       5.7101      0.00000
     30       5.7101      0.00000
     31       6.4760      0.00000
     32       6.4761      0.00000
     33       6.8251      0.00000
     34       6.8251      0.00000
     35       7.4169      0.00000
     36       7.4169      0.00000
     37       8.1885      0.00000
     38       8.1885      0.00000
     39       8.4014      0.00000
     40       8.4014      0.00000
     41      10.3850      0.00000
     42      10.3850      0.00000
     43      10.5834      0.00000
     44      10.5834      0.00000
     45      11.0104      0.00000
     46      11.0104      0.00000
     47      11.3575      0.00000
     48      11.3575      0.00000
     49      11.8108      0.00000
     50      11.8109      0.00000
     51      12.5608      0.00000
     52      12.5608      0.00000
     53      12.7723      0.00000
     54      12.7723      0.00000
     55      12.9349      0.00000
     56      12.9350      0.00000
     57      13.1409      0.00000
     58      13.1409      0.00000
     59      13.3277      0.00000
     60      13.3278      0.00000
     61      13.7694      0.00000
     62      13.7695      0.00000
     63      14.0542      0.00000
     64      14.0542      0.00000
     65      14.5118      0.00000
     66      14.5118      0.00000
     67      14.8675      0.00000
     68      14.8675      0.00000
     69      15.4885      0.00000
     70      15.4885      0.00000
     71      15.8468      0.00000
     72      15.8469      0.00000
     73      16.8367      0.00000
     74      16.8367      0.00000
     75      17.0139      0.00000
     76      17.0140      0.00000
     77      17.7154      0.00000
     78      17.7154      0.00000
     79      18.0059      0.00000
     80      18.0060      0.00000
     81      18.4271      0.00000
     82      18.4272      0.00000
     83      18.7703      0.00000
     84      18.7703      0.00000
     85      19.0433      0.00000
     86      19.0439      0.00000
     87      19.4673      0.00000
     88      19.4736      0.00000

 k-point    10 :       0.5000    0.5000    0.3521
  band No.  band energies     occupation 
      1      -7.3311      1.00000
      2      -7.3311      1.00000
      3      -7.0680      1.00000
      4      -7.0680      1.00000
      5      -5.2492      1.00000
      6      -5.2492      1.00000
      7      -4.0831      1.00000
      8      -4.0831      1.00000
      9      -2.6434      1.00000
     10      -2.6434      1.00000
     11       2.1006      1.00000
     12       2.1007      1.00000
     13       2.5077      1.00000
     14       2.5077      1.00000
     15       2.8698      1.00000
     16       2.8698      1.00000
     17       3.4687      1.00000
     18       3.4687      1.00000
     19       3.6191      1.00000
     20       3.6191      1.00000
     21       3.8936      1.00000
     22       3.8936      1.00000
     23       4.4742      1.00000
     24       4.4742      1.00000
     25       4.6192      1.00000
     26       4.6192      1.00000
     27       5.3046      1.00000
     28       5.3046      1.00000
     29       5.6293      0.00000
     30       5.6293      0.00000
     31       6.6718      0.00000
     32       6.6718      0.00000
     33       6.8718      0.00000
     34       6.8718      0.00000
     35       7.5800      0.00000
     36       7.5800      0.00000
     37       8.2858      0.00000
     38       8.2858      0.00000
     39       8.5004      0.00000
     40       8.5004      0.00000
     41      10.2567      0.00000
     42      10.2567      0.00000
     43      10.6436      0.00000
     44      10.6437      0.00000
     45      10.9184      0.00000
     46      10.9185      0.00000
     47      11.4434      0.00000
     48      11.4434      0.00000
     49      11.8246      0.00000
     50      11.8246      0.00000
     51      12.5541      0.00000
     52      12.5542      0.00000
     53      12.6848      0.00000
     54      12.6848      0.00000
     55      12.9841      0.00000
     56      12.9842      0.00000
     57      13.0998      0.00000
     58      13.0998      0.00000
     59      13.4223      0.00000
[...]
  0.000   0.000   0.000   0.000   9.920   0.000   0.000   0.000  -0.000  -0.519   8.424   0.000   0.000   0.000  -0.000  -0.432
  0.006   0.000   0.007   0.000   0.000   0.000   9.920   0.000  -0.000   0.000   0.000   0.000   8.424   0.000  -0.000   0.000
  0.048   0.000   0.055   0.000  -0.000   0.519  -0.000   0.000   9.919   0.000  -0.000   0.432  -0.000   0.000   8.423   0.000
  0.000   0.000   0.000   0.000   8.424   0.000   0.000   0.000  -0.000  -0.432   7.226   0.000   0.000   0.000   0.000  -0.359
  0.005   0.000   0.006   0.000   0.000   0.000   8.424   0.000  -0.000   0.000   0.000   0.000   7.226   0.000  -0.000   0.000
  0.041   0.000   0.046   0.000  -0.000   0.432  -0.000   0.000   8.423   0.000   0.000   0.359  -0.000   0.000   7.225   0.000
 -0.000   0.000  -0.000   0.000   0.009   0.000  -0.000   0.000  -0.000   0.000   0.008   0.000  -0.000   0.000  -0.000   0.000
  0.000   0.000   0.000   0.000   0.000   0.000   0.000   0.000  -0.000   0.000  -0.000   0.000   0.000   0.000  -0.000   0.000
  0.000   0.000   0.000   0.000   0.000   0.000   0.002   0.000  -0.006   0.000   0.000   0.000   0.002   0.000  -0.005   0.000
 -0.000   0.000  -0.000   0.000  -0.000   0.000   0.009   0.000   0.001   0.000  -0.000   0.000   0.008   0.000   0.001   0.000
 -0.001   0.000  -0.001   0.000   0.000   0.000   0.001   0.000   0.010   0.000   0.000   0.000   0.001   0.000   0.009   0.000
 total augmentation occupancy for first ion, spin component:           1
  2.000   0.000   0.000   0.000   0.000   0.000   0.000   0.000   0.000   0.000   0.000   0.000   0.000
  0.000   0.000   0.000   0.000   0.000   0.000   0.000   0.000   0.000   0.000   0.000   0.000   0.000
  0.000   0.000   1.000   0.000   0.000   0.000   0.000   0.000   0.000   0.000   0.000   0.000   0.000
  0.000   0.000   0.000   1.000   0.000   0.000   0.000   0.000   0.000   0.000   0.000   0.000   0.000
  0.000   0.000   0.000   0.000   1.000   0.000   0.000   0.000   0.000   0.000   0.000   0.000   0.000
  0.000   0.000   0.000   0.000   0.000   0.000   0.000   0.000   0.000   0.000   0.000   0.000   0.000
  0.000   0.000   0.000   0.000   0.000   0.000   0.000   0.000   0.000   0.000   0.000   0.000   0.000
  0.000   0.000   0.000   0.000   0.000   0.000   0.000   0.000   0.000   0.000   0.000   0.000   0.000
  0.000   0.000   0.000   0.000   0.000   0.000   0.000   0.000   0.000   0.000   0.000   0.000   0.000
  0.000   0.000   0.000   0.000   0.000   0.000   0.000   0.000   0.000   0.000   0.000   0.000   0.000
  0.000   0.000   0.000   0.000   0.000   0.000   0.000   0.000   0.000   0.000   0.000   0.000   0.000
  0.000   0.000   0.000   0.000   0.000   0.000   0.000   0.000   0.000   0.000   0.000   0.000   0.000
  0.000   0.000   0.000   0.000   0.000   0.000   0.000   0.000   0.000   0.000   0.000   0.000   0.000
 total augmentation occupancy for first ion, spin component:           2
  0.400   0.000   0.000   0.000   0.000   0.000   0.000   0.000   0.000   0.000   0.000   0.000   0.000
  0.000   0.000   0.000   0.000   0.000   0.000   0.000   0.000   0.000   0.000   0.000   0.000   0.000
  0.000   0.000   0.200   0.000   0.000   0.000   0.000   0.000   0.000   0.000   0.000   0.000   0.000
  0.000   0.000   0.000   0.200   0.000   0.000   0.000   0.000   0.000   0.000   0.000   0.000   0.000
  0.000   0.000   0.000   0.000   0.200   0.000   0.000   0.000   0.000   0.000   0.000   0.000   0.000
  0.000   0.000   0.000   0.000   0.000   0.000   0.000   0.000   0.000   0.000   0.000   0.000   0.000
  0.000   0.000   0.000   0.000   0.000   0.000   0.000   0.000   0.000   0.000   0.000   0.000   0.000
  0.000   0.000   0.000   0.000   0.000   0.000   0.000   0.000   0.000   0.000   0.000   0.000   0.000
  0.000   0.000   0.000   0.000   0.000   0.000   0.000   0.000   0.000   0.000   0.000   0.000   0.000
  0.000   0.000   0.000   0.000   0.000   0.000   0.000   0.000   0.000   0.000   0.000   0.000   0.000
  0.000   0.000   0.000   0.000   0.000   0.000   0.000   0.000   0.000   0.000   0.000   0.000   0.000
  0.000   0.000   0.000   0.000   0.000   0.000   0.000   0.000   0.000   0.000   0.000   0.000   0.000
  0.000   0.000   0.000   0.000   0.000   0.000   0.000   0.000   0.000   0.000   0.000   0.000   0.000
 total augmentation occupancy for first ion, spin component:           3
  0.400   0.000   0.000   0.000   0.000   0.000   0.000   0.000   0.000   0.000   0.000   0.000   0.000
  0.000   0.000   0.000   0.000   0.000   0.000   0.000   0.000   0.000   0.000   0.000   0.000   0.000
  0.000   0.000   0.200   0.000   0.000   0.000   0.000   0.000   0.000   0.000   0.000   0.000   0.000
  0.000   0.000   0.000   0.200   0.000   0.000   0.000   0.000   0.000   0.000   0.000   0.000   0.000
  0.000   0.000   0.000   0.000   0.200   0.000   0.000   0.000   0.000   0.000   0.000   0.000   0.000
  0.000   0.000   0.000   0.000   0.000   0.000   0.000   0.000   0.000   0.000   0.000   0.000   0.000
  0.000   0.000   0.000   0.000   0.000   0.000   0.000   0.000   0.000   0.000   0.000   0.000   0.000
  0.000   0.000   0.000   0.000   0.000   0.000   0.000   0.000   0.000   0.000   0.000   0.000   0.000
  0.000   0.000   0.000   0.000   0.000   0.000   0.000   0.000   0.000   0.000   0.000   0.000   0.000
  0.000   0.000   0.000   0.000   0.000   0.000   0.000   0.000   0.000   0.000   0.000   0.000   0.000
  0.000   0.000   0.000   0.000   0.000   0.000   0.000   0.000   0.000   0.000   0.000   0.000   0.000
  0.000   0.000   0.000   0.000   0.000   0.000   0.000   0.000   0.000   0.000   0.000   0.000   0.000
  0.000   0.000   0.000   0.000   0.000   0.000   0.000   0.000   0.000   0.000   0.000   0.000   0.000
 total augmentation occupancy for first ion, spin component:           4
  0.400   0.000   0.000   0.000   0.000   0.000   0.000   0.000   0.000   0.000   0.000   0.000   0.000
  0.000   0.000   0.000   0.000   0.000   0.000   0.000   0.000   0.000   0.000   0.000   0.000   0.000
  0.000   0.000   0.200   0.000   0.000   0.000   0.000   0.000   0.000   0.000   0.000   0.000   0.000
  0.000   0.000   0.000   0.200   0.000   0.000   0.000   0.000   0.000   0.000   0.000   0.000   0.000
  0.000   0.000   0.000   0.000   0.200   0.000   0.000   0.000   0.000   0.000   0.000   0.000   0.000
  0.000   0.000   0.000   0.000   0.000   0.000   0.000   0.000   0.000   0.000   0.000   0.000   0.000
  0.000   0.000   0.000   0.000   0.000   0.000   0.000   0.000   0.000   0.000   0.000   0.000   0.000
  0.000   0.000   0.000   0.000   0.000   0.000   0.000   0.000   0.000   0.000   0.000   0.000   0.000
  0.000   0.000   0.000   0.000   0.000   0.000   0.000   0.000   0.000   0.000   0.000   0.000   0.000
  0.000   0.000   0.000   0.000   0.000   0.000   0.000   0.000   0.000   0.000   0.000   0.000   0.000
  0.000   0.000   0.000   0.000   0.000   0.000   0.000   0.000   0.000   0.000   0.000   0.000   0.000
  0.000   0.000   0.000   0.000   0.000   0.000   0.000   0.000   0.000   0.000   0.000   0.000   0.000
  0.000   0.000   0.000   0.000   0.000   0.000   0.000   0.000   0.000   0.000   0.000   0.000   0.000


------------------------ aborting loop because EDIFF is reached ----------------------------------------


    CHARGE:  cpu time   23.2338: real time   23.2354
    FORLOC:  cpu time    0.0679: real time    0.0682
    FORNL :  cpu time   48.6711: real time   48.6745
    STRESS:  cpu time  135.9036: real time  135.9161
    FORCOR:  cpu time    3.8647: real time    3.8650
    FORHAR:  cpu time    0.3475: real time    0.3476
    OFIELD:  cpu time    0.0291: real time    0.0291

 ---------------------------------------------------------------------------------------------

         DFTD3 V3.0 Rev 1        
 IVDW         = 11
 DF pbe       
 parameters
 VDW_S6       =    1.0000
 VDW_S8       =    0.7220
 VDW_SR       =    1.2170
 rs18     =    1.0000
 alpha6   =   14.0000
 alpha8   =   16.0000
 k1-k3    =   16.0000    1.3333   -4.0000
 VDW_RADIUS   =   50.2022 A
 VDW_CNRADIUS =   21.1671 A
 Edisp (eV)   -1.44006

 E6    (eV) :    -0.5341
 E8    (eV) :    -0.9060
 % E8        : 62.91
    FORVDW:  cpu time    0.0683: real time    0.0890

  FORCE on cell =-STRESS in cart. coord.  units (eV):
  Direction    XX          YY          ZZ          XY          YZ          ZX
  --------------------------------------------------------------------------------------
  Alpha Z     5.99832     5.99832     5.99832
  Ewald    -328.18772  -327.69505  -327.70289     0.00000     0.00000    -0.06217
  Hartree    23.45081    23.25019    23.76627     0.00000    -0.00000     0.09368
  E(xc)    -115.87850  -116.77220  -116.55603    -0.00000     0.00000    -0.16013
  Local    -169.73718  -179.05823  -177.06072    -0.00000     0.00000    -3.83852
  n-local   497.06746   505.84061   503.58451     0.00000    -0.00000     2.72911
  augment  -136.11964  -138.94208  -138.44765    -0.00000     0.00000    -0.18119
  Kinetic   235.86781   268.49633   259.05827     0.00000     0.00000    -5.93446
  Fock        0.00000     0.00000     0.00000     0.00000     0.00000     0.00000
  vdW        -1.55260    -1.18955    -1.19533     0.00000    -0.00000    -0.04581
  -------------------------------------------------------------------------------------
  Total      10.90876    39.92834    31.44474    -0.00000     0.00000    -7.39950
  in kB     101.24486   370.57744   291.84058    -0.00001     0.00001   -68.67518
  external pressure =      254.55 kB  Pullay stress =        0.00 kB


 VOLUME and BASIS-vectors are now :
 -----------------------------------------------------------------------------
  energy-cutoff  :      600.00
  volume of cell :      172.63
      direct lattice vectors                 reciprocal lattice vectors
    10.222282710 -2.216677340  0.000000000     0.048912754 -0.225562824 -0.125089241
    10.222282710  2.216677340  0.000000000     0.048912754  0.225562824 -0.125089241
     9.741601570  0.000000000  3.809189020    -0.000000000  0.000000000  0.262523071

  length of vectors
    10.459862439 10.459862439 10.459862434     0.262523071  0.262523071  0.262523071


 FORCES acting on ions
    electron-ion (+dipol)            ewald-force                    non-local-force                 convergence-correction
 -----------------------------------------------------------------------------------------------
   -.170E+01 -.681E-05 -.636E-01   0.388E+01 0.647E-14 0.490E+00   0.161E+00 0.113E-04 0.268E+00   -.225E+01 0.324E-06 -.382E+00
   0.170E+01 -.710E-05 0.637E-01   -.388E+01 -.689E-14 -.490E+00   -.161E+00 0.114E-04 -.268E+00   0.225E+01 0.488E-06 0.382E+00
   -.822E-05 0.446E-05 0.536E-05   -.568E-13 -.288E-14 -.355E-14   0.984E-05 -.904E-05 -.401E-05   -.243E-05 0.930E-06 -.976E-06
   0.250E+02 0.322E-05 0.443E+01   -.256E+02 0.394E-14 -.323E+01   -.920E-01 -.779E-05 -.650E-01   0.913E+00 0.790E-06 -.328E+00
   -.250E+02 0.515E-05 -.443E+01   0.256E+02 -.408E-14 0.323E+01   0.920E-01 -.918E-05 0.650E-01   -.913E+00 0.578E-06 0.328E+00
 -----------------------------------------------------------------------------------------------
   -.217E-04 -.107E-05 0.153E-04   -.142E-13 -.345E-14 -.444E-15   0.205E-04 -.329E-05 -.152E-04   0.131E-05 0.311E-05 -.840E-06


 POSITION                                       TOTAL-FORCE (eV/Angst)
 -----------------------------------------------------------------------------------
     12.06838      0.00000      1.52291         0.119633      0.000005      0.315568
     18.11779      0.00000      2.28628        -0.119630      0.000005     -0.315569
      0.00000      0.00000      0.00000        -0.000001     -0.000003      0.000001
      6.35376      0.00000      0.80178         0.256787     -0.000004      0.805245
     23.83241      0.00000      3.00741        -0.256788     -0.000003     -0.805245
 -----------------------------------------------------------------------------------
    total drift:                                0.000000     -0.000001     -0.000001


--------------------------------------------------------------------------------------------------------



  FREE ENERGIE OF THE ION-ELECTRON SYSTEM (eV)
  ---------------------------------------------------
  free  energy   TOTEN  =        -8.02172397 eV

  energy  without entropy=       -8.02172397  energy(sigma->0) =       -8.02172397



--------------------------------------------------------------------------------------------------------


    POTLOK:  cpu time   10.7490: real time   10.7497


--------------------------------------------------------------------------------------------------------


     LOOP+:  cpu time 3051.0409: real time 3053.7122
    4ORBIT:  cpu time    0.0000: real time    0.0000

 Spin-Orbit-Coupling matrix elements

 Ion:    1  E_soc:     -1.2012088
 l=   1
     0.0000000    -0.2002702    -0.1931931
    -0.2002702     0.0000000    -0.2024484
    -0.1931931    -0.2024484     0.0000000
 l=   2
     0.0000000    -0.0003795     0.0000000    -0.0003234    -0.0014030
    -0.0003795     0.0000000    -0.0009137    -0.0002345    -0.0007155
     0.0000000    -0.0009137     0.0000000    -0.0005462     0.0000000
    -0.0003234    -0.0002345    -0.0005462     0.0000000    -0.0001770
    -0.0014030    -0.0007155     0.0000000    -0.0001770     0.0000000
 l=   3
     0.0000000     0.0000000     0.0000000     0.0000000     0.0000000     0.0000000     0.0000000
     0.0000000     0.0000000     0.0000000     0.0000000     0.0000000     0.0000000     0.0000000
     0.0000000     0.0000000     0.0000000     0.0000000     0.0000000     0.0000000     0.0000000
     0.0000000     0.0000000     0.0000000     0.0000000     0.0000000     0.0000000     0.0000000
     0.0000000     0.0000000     0.0000000     0.0000000     0.0000000     0.0000000     0.0000000
     0.0000000     0.0000000     0.0000000     0.0000000     0.0000000     0.0000000     0.0000000
     0.0000000     0.0000000     0.0000000     0.0000000     0.0000000     0.0000000     0.0000000

 Ion:    2  E_soc:     -1.2012086
 l=   1
     0.0000000    -0.2002703    -0.1931931
    -0.2002703     0.0000000    -0.2024482
    -0.1931931    -0.2024482     0.0000000
 l=   2
     0.0000000    -0.0003795     0.0000000    -0.0003234    -0.0014030
    -0.0003795     0.0000000    -0.0009137    -0.0002345    -0.0007155
     0.0000000    -0.0009137     0.0000000    -0.0005462     0.0000000
    -0.0003234    -0.0002345    -0.0005462     0.0000000    -0.0001770
    -0.0014030    -0.0007155     0.0000000    -0.0001770     0.0000000
 l=   3
     0.0000000     0.0000000     0.0000000     0.0000000     0.0000000     0.0000000     0.0000000
     0.0000000     0.0000000     0.0000000     0.0000000     0.0000000     0.0000000     0.0000000
     0.0000000     0.0000000     0.0000000     0.0000000     0.0000000     0.0000000     0.0000000
     0.0000000     0.0000000     0.0000000     0.0000000     0.0000000     0.0000000     0.0000000
     0.0000000     0.0000000     0.0000000     0.0000000     0.0000000     0.0000000     0.0000000
     0.0000000     0.0000000     0.0000000     0.0000000     0.0000000     0.0000000     0.0000000
     0.0000000     0.0000000     0.0000000     0.0000000     0.0000000     0.0000000     0.0000000

 Ion:    3  E_soc:     -0.2464037
 l=   1
     0.0000000    -0.0425425    -0.0348974
    -0.0425425     0.0000000    -0.0460580
    -0.0348974    -0.0460580     0.0000000
 l=   2
     0.0000000     0.0000019     0.0000000    -0.0000913     0.0001023
     0.0000019     0.0000000     0.0001201    -0.0000084     0.0000477
     0.0000000     0.0001201     0.0000000     0.0000460     0.0000000
    -0.0000913    -0.0000084     0.0000460     0.0000000     0.0000777
     0.0001023     0.0000477     0.0000000     0.0000777     0.0000000
 l=   3
     0.0000000     0.0000000     0.0000000     0.0000000     0.0000000     0.0000000     0.0000000
     0.0000000     0.0000000     0.0000000     0.0000000     0.0000000     0.0000000     0.0000000
     0.0000000     0.0000000     0.0000000     0.0000000     0.0000000     0.0000000     0.0000000
     0.0000000     0.0000000     0.0000000     0.0000000     0.0000000     0.0000000     0.0000000
     0.0000000     0.0000000     0.0000000     0.0000000     0.0000000     0.0000000     0.0000000
     0.0000000     0.0000000     0.0000000     0.0000000     0.0000000     0.0000000     0.0000000
     0.0000000     0.0000000     0.0000000     0.0000000     0.0000000     0.0000000     0.0000000

 Ion:    4  E_soc:     -0.2500845
 l=   1
     0.0000000    -0.0346742    -0.0349214
    -0.0346742     0.0000000    -0.0555981
    -0.0349214    -0.0555981     0.0000000
 l=   2
     0.0000000    -0.0000120     0.0000000    -0.0000290     0.0000261
    -0.0000120     0.0000000     0.0000740     0.0000198     0.0000511
     0.0000000     0.0000740     0.0000000    -0.0000135     0.0000000
    -0.0000290     0.0000198    -0.0000135     0.0000000     0.0000350
     0.0000261     0.0000511     0.0000000     0.0000350     0.0000000
 l=   3
     0.0000000     0.0000000     0.0000000     0.0000000     0.0000000     0.0000000     0.0000000
     0.0000000     0.0000000     0.0000000     0.0000000     0.0000000     0.0000000     0.0000000
     0.0000000     0.0000000     0.0000000     0.0000000     0.0000000     0.0000000     0.0000000
     0.0000000     0.0000000     0.0000000     0.0000000     0.0000000     0.0000000     0.0000000
     0.0000000     0.0000000     0.0000000     0.0000000     0.0000000     0.0000000     0.0000000
     0.0000000     0.0000000     0.0000000     0.0000000     0.0000000     0.0000000     0.0000000
     0.0000000     0.0000000     0.0000000     0.0000000     0.0000000     0.0000000     0.0000000

 Ion:    5  E_soc:     -0.2500847
 l=   1
     0.0000000    -0.0346743    -0.0349215
    -0.0346743     0.0000000    -0.0555980
    -0.0349215    -0.0555980     0.0000000
 l=   2
     0.0000000    -0.0000120     0.0000000    -0.0000290     0.0000261
    -0.0000120     0.0000000     0.0000740     0.0000198     0.0000511
     0.0000000     0.0000740     0.0000000    -0.0000135     0.0000000
    -0.0000290     0.0000198    -0.0000135     0.0000000     0.0000350
     0.0000261     0.0000511     0.0000000     0.0000350     0.0000000
 l=   3
     0.0000000     0.0000000     0.0000000     0.0000000     0.0000000     0.0000000     0.0000000
     0.0000000     0.0000000     0.0000000     0.0000000     0.0000000     0.0000000     0.0000000
     0.0000000     0.0000000     0.0000000     0.0000000     0.0000000     0.0000000     0.0000000
     0.0000000     0.0000000     0.0000000     0.0000000     0.0000000     0.0000000     0.0000000
     0.0000000     0.0000000     0.0000000     0.0000000     0.0000000     0.0000000     0.0000000
     0.0000000     0.0000000     0.0000000     0.0000000     0.0000000     0.0000000     0.0000000
     0.0000000     0.0000000     0.0000000     0.0000000     0.0000000     0.0000000     0.0000000

 total amount of memory used by VASP MPI-rank0   804901. kBytes
=======================================================================

   base      :      30000. kBytes
   nonl-proj :      36720. kBytes
   fftplans  :     182230. kBytes
   grid      :     180182. kBytes
   one-center:         97. kBytes
   wavefun   :     375672. kBytes

  
  
 General timing and accounting informations for this job:
 ========================================================
  
                  Total CPU time used (sec):     3089.626
                            User time (sec):     3051.162
                          System time (sec):       38.465
                         Elapsed time (sec):     3092.750
  
                   Maximum memory used (kb):     1144156.
                   Average memory used (kb):           0.
  
                          Minor page faults:      5391657
                          Major page faults:            0
                 Voluntary context switches:         4430
