<?xml version="1.0" encoding="ISO-8859-1"?>
<modeling>
 <generator>
  <i name="program" type="string">vasp </i>
  <i name="version" type="string">5.4.4.18Apr17-6-g9f103f2a35  </i>
  <i name="subversion" type="string">(build Mar 20 2018 18:07:30) complex            parallel </i>
  <i name="platform" type="string">LinuxGNU </i>
  <i name="date" type="string">2020 07 06 </i>
  <i name="time" type="string">22:44:03 </i>
 </generator>
 <incar>
  <i type="string" name="SYSTEM"> BiTe</i>
  <i type="int" name="ISTART">     1</i>
  <i type="string" name="PREC">accurate</i>
  <i type="string" name="ALGO"> A</i>
  <i type="logical" name="ADDGRID"> T  </i>
  <i type="logical" name="LSORBIT"> T  </i>
  <i type="int" name="ISPIN">     1</i>
  <i type="int" name="ICHARG">    11</i>
  <i type="int" name="IBRION">    -1</i>
  <i name="EDIFF">      0.00000010</i>
  <i name="EDIFFG">     -0.00100000</i>
  <i type="int" name="NSW">     0</i>
  <i type="int" name="ISYM">    -1</i>
  <i name="ENCUT">    600.00000000</i>
  <i type="int" name="NBANDS">    88</i>
  <i type="logical" name="LREAL"> F  </i>
  <i type="logical" name="LPLANE"> T  </i>
  <i type="int" name="ISMEAR">     0</i>
  <i name="SIGMA">      0.01000000</i>
  <i type="int" name="LMAXMIX">     4</i>
  <i type="logical" name="LWAVE"> F  </i>
  <i type="logical" name="LCHARG"> F  </i>
  <i type="logical" name="GGA_COMPAT"> F  </i>
  <v type="int" name="KPOINT_BSE">    -1     0     0     0</v>
 </incar>
 <structure name="primitive_cell" >
  <crystal>
   <varray name="basis" >
    <v>      10.22228271      -2.21667734       0.00000000 </v>
    <v>      10.22228271       2.21667734       0.00000000 </v>
    <v>       9.74160157       0.00000000       3.80918902 </v>
   </varray>
   <i name="volume">    172.62865583 </i>
   <varray name="rec_basis" >
    <v>       0.04891275      -0.22556282      -0.12508924 </v>
    <v>       0.04891275       0.22556282      -0.12508924 </v>
    <v>      -0.00000000       0.00000000       0.26252307 </v>
   </varray>
  </crystal>
  <varray name="positions" >
   <v>       0.39979833       0.39979833       0.39979833 </v>
   <v>      -0.21048582      -0.21048582      -0.21048582 </v>
   <v>       0.00000000       0.00000000       0.00000000 </v>
   <v>      -0.39979833      -0.39979833      -0.39979833 </v>
   <v>       0.21048582       0.21048582       0.21048582 </v>
  </varray>
 </structure>
 <varray name="primitive_index" >
  <v type="int" >        1 </v>
  <v type="int" >        5 </v>
  <v type="int" >        3 </v>
  <v type="int" >        2 </v>
  <v type="int" >        4 </v>
 </varray>
 <kpoints>
  <varray name="kpointlist" >
   <v>       0.50000000       0.50000000       0.37500000 </v>
   <v>       0.43851108       0.43851108       0.31640246 </v>
   <v>       0.46925554       0.46925554       0.34570123 </v>
   <v>       0.53074446       0.53074446       0.40429877 </v>
   <v>       0.56148892       0.56148892       0.43359754 </v>
   <v>       0.51333372       0.48666628       0.37500000 </v>
   <v>       0.50666686       0.49333314       0.37500000 </v>
   <v>       0.49333314       0.50666686       0.37500000 </v>
   <v>       0.48666628       0.51333372       0.37500000 </v>
   <v>       0.50000000       0.50000000       0.35208702 </v>
   <v>       0.50000000       0.50000000       0.36354351 </v>
   <v>       0.50000000       0.50000000       0.38645649 </v>
   <v>       0.50000000       0.50000000       0.39791298 </v>
   <v>       0.45184480       0.42517735       0.31640246 </v>
   <v>       0.48258926       0.45592181       0.34570123 </v>
   <v>       0.54407819       0.51741074       0.40429877 </v>
   <v>       0.57482265       0.54815520       0.43359754 </v>
   <v>       0.44517794       0.43184422       0.31640246 </v>
   <v>       0.47592240       0.46258868       0.34570123 </v>
   <v>       0.53741132       0.52407760       0.40429877 </v>
   <v>       0.56815578       0.55482206       0.43359754 </v>
   <v>       0.43184422       0.44517794       0.31640246 </v>
   <v>       0.46258868       0.47592240       0.34570123 </v>
   <v>       0.52407760       0.53741132       0.40429877 </v>
   <v>       0.55482206       0.56815578       0.43359754 </v>
   <v>       0.42517735       0.45184480       0.31640246 </v>
   <v>       0.45592181       0.48258926       0.34570123 </v>
   <v>       0.51741074       0.54407819       0.40429877 </v>
   <v>       0.54815520       0.57482265       0.43359754 </v>
   <v>       0.43851108       0.43851108       0.29348949 </v>
   <v>       0.46925554       0.46925554       0.32278825 </v>
   <v>       0.53074446       0.53074446       0.38138579 </v>
   <v>       0.56148892       0.56148892       0.41068456 </v>
   <v>       0.43851108       0.43851108       0.30494598 </v>
   <v>       0.46925554       0.46925554       0.33424474 </v>
   <v>       0.53074446       0.53074446       0.39284228 </v>
   <v>       0.56148892       0.56148892       0.42214105 </v>
   <v>       0.43851108       0.43851108       0.32785895 </v>
   <v>       0.46925554       0.46925554       0.35715772 </v>
   <v>       0.53074446       0.53074446       0.41575526 </v>
   <v>       0.56148892       0.56148892       0.44505402 </v>
   <v>       0.43851108       0.43851108       0.33931544 </v>
   <v>       0.46925554       0.46925554       0.36861421 </v>
   <v>       0.53074446       0.53074446       0.42721175 </v>
   <v>       0.56148892       0.56148892       0.45651051 </v>
   <v>       0.51333372       0.48666628       0.35208702 </v>
   <v>       0.50666686       0.49333314       0.35208702 </v>
   <v>       0.49333314       0.50666686       0.35208702 </v>
   <v>       0.48666628       0.51333372       0.35208702 </v>
   <v>       0.51333372       0.48666628       0.36354351 </v>
   <v>       0.50666686       0.49333314       0.36354351 </v>
   <v>       0.49333314       0.50666686       0.36354351 </v>
   <v>       0.48666628       0.51333372       0.36354351 </v>
   <v>       0.51333372       0.48666628       0.38645649 </v>
   <v>       0.50666686       0.49333314       0.38645649 </v>
   <v>       0.49333314       0.50666686       0.38645649 </v>
   <v>       0.48666628       0.51333372       0.38645649 </v>
   <v>       0.51333372       0.48666628       0.39791298 </v>
   <v>       0.50666686       0.49333314       0.39791298 </v>
   <v>       0.49333314       0.50666686       0.39791298 </v>
   <v>       0.48666628       0.51333372       0.39791298 </v>
  </varray>
  <varray name="weights" >
   <v>       0.01639344 </v>
   <v>       0.01639344 </v>
   <v>       0.01639344 </v>
   <v>       0.01639344 </v>
   <v>       0.01639344 </v>
   <v>       0.01639344 </v>
   <v>       0.01639344 </v>
   <v>       0.01639344 </v>
   <v>       0.01639344 </v>
   <v>       0.01639344 </v>
   <v>       0.01639344 </v>
   <v>       0.01639344 </v>
   <v>       0.01639344 </v>
   <v>       0.01639344 </v>
   <v>       0.01639344 </v>
   <v>       0.01639344 </v>
   <v>       0.01639344 </v>
   <v>       0.01639344 </v>
   <v>       0.01639344 </v>
   <v>       0.01639344 </v>
   <v>       0.01639344 </v>
   <v>       0.01639344 </v>
   <v>       0.01639344 </v>
   <v>       0.01639344 </v>
   <v>       0.01639344 </v>
   <v>       0.01639344 </v>
   <v>       0.01639344 </v>
   <v>       0.01639344 </v>
   <v>       0.01639344 </v>
   <v>       0.01639344 </v>
   <v>       0.01639344 </v>
   <v>       0.01639344 </v>
   <v>       0.01639344 </v>
   <v>       0.01639344 </v>
   <v>       0.01639344 </v>
   <v>       0.01639344 </v>
   <v>       0.01639344 </v>
   <v>       0.01639344 </v>
   <v>       0.01639344 </v>
   <v>       0.01639344 </v>
   <v>       0.01639344 </v>
   <v>       0.01639344 </v>
   <v>       0.01639344 </v>
   <v>       0.01639344 </v>
   <v>       0.01639344 </v>
   <v>       0.01639344 </v>
   <v>       0.01639344 </v>
   <v>       0.01639344 </v>
   <v>       0.01639344 </v>
   <v>       0.01639344 </v>
   <v>       0.01639344 </v>
   <v>       0.01639344 </v>
   <v>       0.01639344 </v>
   <v>       0.01639344 </v>
   <v>       0.01639344 </v>
   <v>       0.01639344 </v>
   <v>       0.01639344 </v>
   <v>       0.01639344 </v>
   <v>       0.01639344 </v>
   <v>       0.01639344 </v>
   <v>       0.01639344 </v>
  </varray>
 </kpoints>
 <parameters>
  <separator name="general" >
   <i type="string" name="SYSTEM">BiTe</i>
   <i type="logical" name="LCOMPAT"> F  </i>
  </separator>
  <separator name="electronic" >
   <i type="string" name="PREC">accura</i>
   <i name="ENMAX">    600.00000000</i>
   <i name="ENAUG">    368.79200000</i>
   <i name="EDIFF">      0.00000010</i>
   <i type="int" name="IALGO">    58</i>
   <i type="int" name="IWAVPR">    10</i>
   <i type="int" name="NBANDS">    88</i>
   <i name="NELECT">     28.00000000</i>
   <i type="int" name="TURBO">     0</i>
   <i type="int" name="IRESTART">     0</i>
   <i type="int" name="NREBOOT">     0</i>
   <i type="int" name="NMIN">     0</i>
   <i name="EREF">      0.00000000</i>
   <separator name="electronic smearing" >
    <i type="int" name="ISMEAR">     0</i>
    <i name="SIGMA">      0.01000000</i>
    <i name="KSPACING">      0.50000000</i>
    <i type="logical" name="KGAMMA"> T  </i>
   </separator>
   <separator name="electronic projectors" >
    <i type="logical" name="LREAL"> F  </i>
    <v name="ROPT">      0.00000000      0.00000000</v>
    <i type="int" name="LMAXPAW">  -100</i>
    <i type="int" name="LMAXMIX">     4</i>
    <i type="logical" name="NLSPLINE"> F  </i>
   </separator>
   <separator name="electronic startup" >
    <i type="int" name="ISTART">     0</i>
    <i type="int" name="ICHARG">    11</i>
    <i type="int" name="INIWAV">     1</i>
   </separator>
   <separator name="electronic spin" >
    <i type="int" name="ISPIN">     1</i>
    <i type="logical" name="LNONCOLLINEAR"> T  </i>
    <v name="MAGMOM">      1.00000000      1.00000000      1.00000000      1.00000000      1.00000000      1.00000000      1.00000000      1.00000000      1.00000000      1.00000000      1.00000000      1.00000000      1.00000000      1.00000000      1.00000000</v>
    <i name="NUPDOWN">     -1.00000000</i>
    <i type="logical" name="LSORBIT"> T  </i>
    <v name="SAXIS">      0.00000000      0.00000000      1.00000000</v>
    <i type="logical" name="LSPIRAL"> F  </i>
    <v name="QSPIRAL">      0.00000000      0.00000000      0.00000000</v>
    <i type="logical" name="LZEROZ"> F  </i>
   </separator>
   <separator name="electronic exchange-correlation" >
    <i type="logical" name="LASPH"> F  </i>
    <i type="logical" name="LMETAGGA"> F  </i>
   </separator>
   <separator name="electronic convergence" >
    <i type="int" name="NELM">    60</i>
    <i type="int" name="NELMDL">     0</i>
    <i type="int" name="NELMIN">     2</i>
    <i name="ENINI">    600.00000000</i>
    <separator name="electronic convergence detail" >
     <i type="logical" name="LDIAG"> T  </i>
     <i type="logical" name="LSUBROT"> F  </i>
     <i name="WEIMIN">      0.00000000</i>
     <i name="EBREAK">      0.00000000</i>
     <i name="DEPER">      0.30000000</i>
     <i type="int" name="NRMM">     4</i>
     <i name="TIME">      0.40000000</i>
    </separator>
   </separator>
   <separator name="electronic mixer" >
    <i name="AMIX">      0.40000000</i>
    <i name="BMIX">      1.00000000</i>
    <i name="AMIN">      0.10000000</i>
    <i name="AMIX_MAG">      1.60000000</i>
    <i name="BMIX_MAG">      1.00000000</i>
    <separator name="electronic mixer details" >
     <i type="int" name="IMIX">     4</i>
     <i type="logical" name="MIXFIRST"> F  </i>
     <i type="int" name="MAXMIX">   -45</i>
     <i name="WC">    100.00000000</i>
     <i type="int" name="INIMIX">     1</i>
     <i type="int" name="MIXPRE">     1</i>
     <i type="int" name="MREMOVE">     5</i>
    </separator>
   </separator>
   <separator name="electronic dipolcorrection" >
    <i type="logical" name="LDIPOL"> F  </i>
    <i type="logical" name="LMONO"> F  </i>
    <i type="int" name="IDIPOL">     0</i>
    <i name="EPSILON">      1.00000000</i>
    <v name="DIPOL">   -100.00000000   -100.00000000   -100.00000000</v>
    <i name="EFIELD">      0.00000000</i>
   </separator>
  </separator>
  <separator name="grids" >
   <i type="int" name="NGX">    84</i>
   <i type="int" name="NGY">    84</i>
   <i type="int" name="NGZ">    84</i>
   <i type="int" name="NGXF">   168</i>
   <i type="int" name="NGYF">   168</i>
   <i type="int" name="NGZF">   168</i>
   <i type="logical" name="ADDGRID"> T  </i>
  </separator>
  <separator name="ionic" >
   <i type="int" name="NSW">     0</i>
   <i type="int" name="IBRION">    -1</i>
   <i type="int" name="MDALGO">     0</i>
   <i type="int" name="ISIF">     2</i>
   <i name="PSTRESS">      0.00000000</i>
   <i name="EDIFFG">     -0.00100000</i>
   <i type="int" name="NFREE">     0</i>
   <i name="POTIM">      0.50000000</i>
   <i name="SMASS">     -3.00000000</i>
   <i name="SCALEE">      1.00000000</i>
  </separator>
  <separator name="ionic md" >
   <i name="TEBEG">      0.00010000</i>
   <i name="TEEND">      0.00010000</i>
   <i type="int" name="NBLOCK">     1</i>
   <i type="int" name="KBLOCK">     1</i>
   <i type="int" name="NPACO">   256</i>
   <i name="APACO">     16.00000000</i>
  </separator>
  <separator name="symmetry" >
   <i type="int" name="ISYM">    -1</i>
   <i name="SYMPREC">      0.00001000</i>
  </separator>
  <separator name="dos" >
   <i type="int" name="LORBIT">     0</i>
   <v name="RWIGS">     -1.00000000     -1.00000000</v>
   <i type="int" name="NEDOS">   301</i>
   <i name="EMIN">     10.00000000</i>
   <i name="EMAX">    -10.00000000</i>
   <i name="EFERMI">      0.00000000</i>
  </separator>
  <separator name="writing" >
   <i type="int" name="NWRITE">     2</i>
   <i type="logical" name="LWAVE"> F  </i>
   <i type="logical" name="LDOWNSAMPLE"> F  </i>
   <i type="logical" name="LCHARG"> F  </i>
   <i type="logical" name="LPARD"> F  </i>
   <i type="logical" name="LVTOT"> F  </i>
   <i type="logical" name="LVHAR"> F  </i>
   <i type="logical" name="LELF"> F  </i>
   <i type="logical" name="LOPTICS"> F  </i>
   <v name="STM">      0.00000000      0.00000000      0.00000000      0.00000000      0.00000000      0.00000000      0.00000000</v>
  </separator>
  <separator name="performance" >
   <i type="int" name="NPAR">     4</i>
   <i type="int" name="NSIM">     4</i>
   <i type="int" name="NBLK">    -1</i>
   <i type="logical" name="LPLANE"> T  </i>
   <i type="logical" name="LSCALAPACK"> T  </i>
   <i type="logical" name="LSCAAWARE"> F  </i>
   <i type="logical" name="LSCALU"> F  </i>
   <i type="logical" name="LASYNC"> F  </i>
   <i type="logical" name="LORBITALREAL"> F  </i>
  </separator>
  <separator name="miscellaneous" >
   <i type="int" name="IDIOT">     3</i>
   <i type="int" name="ISPECIAL">     0</i>
   <i type="logical" name="LMUSIC"> F  </i>
   <v name="POMASS">    208.98000000    127.60000000</v>
   <v name="DARWINR">      0.00000000      0.00000000</v>
   <v name="DARWINV">      1.00000000      1.00000000</v>
   <i type="logical" name="LCORR"> T  </i>
  </separator>
  <i type="logical" name="GGA_COMPAT"> F  </i>
  <i type="logical" name="LBERRY"> F  </i>
  <i type="int" name="ICORELEVEL">     0</i>
  <i type="logical" name="LDAU"> F  </i>
  <i type="int" name="I_CONSTRAINED_M">     0</i>
  <separator name="electronic exchange-correlation" >
   <i type="string" name="GGA">--</i>
   <i type="int" name="VOSKOWN">     0</i>
   <i type="logical" name="LHFCALC"> F  </i>
   <i type="string" name="PRECFOCK"></i>
   <i type="logical" name="LSYMGRAD"> F  </i>
   <i type="logical" name="LHFONE"> F  </i>
   <i type="logical" name="LRHFCALC"> F  </i>
   <i type="logical" name="LTHOMAS"> F  </i>
   <i type="logical" name="LMODELHF"> F  </i>
   <i name="ENCUT4O">     -1.00000000</i>
   <i type="int" name="EXXOEP">     0</i>
   <i type="int" name="FOURORBIT">     0</i>
   <i name="AEXX">      0.00000000</i>
   <i name="HFALPHA">      0.00000000</i>
   <i name="MCALPHA">      0.00000000</i>
   <i name="ALDAX">      1.00000000</i>
   <i name="AGGAX">      1.00000000</i>
   <i name="ALDAC">      1.00000000</i>
   <i name="AGGAC">      1.00000000</i>
   <i type="int" name="NKREDX">     1</i>
   <i type="int" name="NKREDY">     1</i>
   <i type="int" name="NKREDZ">     1</i>
   <i type="logical" name="SHIFTRED"> F  </i>
   <i type="logical" name="ODDONLY"> F  </i>
   <i type="logical" name="EVENONLY"> F  </i>
   <i type="int" name="LMAXFOCK">     0</i>
   <i type="int" name="NMAXFOCKAE">     0</i>
   <i type="logical" name="LFOCKAEDFT"> F  </i>
   <i name="HFSCREEN">      0.00000000</i>
   <i name="HFSCREENC">      0.00000000</i>
   <i type="int" name="NBANDSGWLOW">     0</i>
  </separator>
  <separator name="vdW DFT" >
   <i type="logical" name="LUSE_VDW"> F  </i>
   <i name="Zab_VDW">     -0.84910000</i>
   <i name="PARAM1">      0.12340000</i>
   <i name="PARAM2">      1.00000000</i>
   <i name="PARAM3">      0.00000000</i>
  </separator>
  <separator name="model GW" >
   <i type="int" name="MODEL_GW">     0</i>
   <i name="MODEL_EPS0">     20.71543870</i>
   <i name="MODEL_ALPHA">      1.00000000</i>
  </separator>
  <separator name="linear response parameters" >
   <i type="logical" name="LEPSILON"> F  </i>
   <i type="logical" name="LRPA"> F  </i>
   <i type="logical" name="LNABLA"> F  </i>
   <i type="logical" name="LVEL"> F  </i>
   <i type="int" name="KINTER">     0</i>
   <i name="CSHIFT">      0.10000000</i>
   <i name="OMEGAMAX">     -1.00000000</i>
   <i name="DEG_THRESHOLD">      0.00200000</i>
   <i name="RTIME">     -0.10000000</i>
   <i name="WPLASMAI">      0.00000000</i>
   <v name="DFIELD">      0.00000000      0.00000000      0.00000000</v>
   <v name="WPLASMA">      0.00000000      0.00000000      0.00000000      0.00000000      0.00000000      0.00000000      0.00000000      0.00000000      0.00000000</v>
  </separator>
  <separator name="orbital magnetization" >
   <i type="logical" name="NUCIND"> F  </i>
   <v name="MAGPOS">      0.00000000      0.00000000      0.00000000</v>
   <i type="logical" name="LNICSALL"> T  </i>
   <i type="logical" name="ORBITALMAG"> F  </i>
   <i type="logical" name="LMAGBLOCH"> F  </i>
   <i type="logical" name="LCHIMAG"> F  </i>
   <i type="logical" name="LGAUGE"> T  </i>
   <i type="int" name="MAGATOM">     0</i>
   <v name="MAGDIPOL">      0.00000000      0.00000000      0.00000000</v>
   <v name="AVECCONST">      0.00000000      0.00000000      0.00000000</v>
  </separator>
  <separator name="response functions" >
   <i type="logical" name="LADDER"> F  </i>
   <i type="logical" name="LRPAFORCE"> F  </i>
   <i type="logical" name="LFXC"> F  </i>
   <i type="logical" name="LHARTREE"> T  </i>
   <i type="int" name="IBSE">     0</i>
   <v type="int" name="KPOINT">    -1     0     0     0</v>
   <i type="logical" name="LTCTE"> F  </i>
   <i type="logical" name="LTETE"> F  </i>
   <i type="logical" name="LTRIPLET"> F  </i>
   <i type="logical" name="LFXCEPS"> F  </i>
   <i type="logical" name="LFXHEG"> F  </i>
   <i type="int" name="NATURALO">     2</i>
   <i type="logical" name="L2ORDER"> F  </i>
   <i type="logical" name="LMP2LT"> F  </i>
   <i type="logical" name="LUSEW"> F  </i>
   <i name="ENCUTGW">     -2.00000000</i>
   <i name="ENCUTGWSOFT">     -2.00000000</i>
   <i name="ENCUTLF">     -1.00000000</i>
   <i type="int" name="LMAXMP2">    -1</i>
   <i name="SCISSOR">      0.00000000</i>
   <i type="int" name="NOMEGA">     0</i>
   <i type="int" name="NOMEGAR">     0</i>
   <i type="int" name="NBANDSGW">    -1</i>
   <i type="int" name="NBANDSO">    -1</i>
   <i type="int" name="NBANDSV">    -1</i>
   <i type="int" name="NELM">     1</i>
   <i type="int" name="NELMHF">     1</i>
   <i type="int" name="DIM">     3</i>
   <i type="int" name="ANTIRES">     0</i>
   <i name="OMEGAMAX">    -30.00000000</i>
   <i name="OMEGAMIN">    -30.00000000</i>
   <i name="OMEGATL">   -200.00000000</i>
   <i type="int" name="OMEGAGRID">   140</i>
   <i name="CSHIFT">     -0.10000000</i>
   <i type="logical" name="SELFENERGY"> F  </i>
   <i type="logical" name="LSPECTRAL"> F  </i>
   <i type="logical" name="LSPECTRALGW"> F  </i>
   <i type="logical" name="LSINGLES"> F  </i>
   <i type="logical" name="LFERMIGW"> F  </i>
   <i type="logical" name="ODDONLYGW"> F  </i>
   <i type="logical" name="EVENONLYGW"> F  </i>
   <i type="int" name="NKREDLFX">     1</i>
   <i type="int" name="NKREDLFY">     1</i>
   <i type="int" name="NKREDLFZ">     1</i>
   <i type="int" name="MAXMEM">  2800</i>
   <i type="int" name="TELESCOPE">     0</i>
   <i type="int" name="TAUPAR">     1</i>
   <i type="int" name="OMEGAPAR">    -1</i>
   <i name="LAMBDA">      1.00000000</i>
  </separator>
  <separator name="External order field" >
   <i name="OFIELD_KAPPA">      0.00000000</i>
   <v name="OFIELD_K">      0.00000000      0.00000000      0.00000000</v>
   <i name="OFIELD_Q6_NEAR">      0.00000000</i>
   <i name="OFIELD_Q6_FAR">      0.00000000</i>
   <i name="OFIELD_A">      0.00000000</i>
  </separator>
 </parameters>
 <atominfo>
  <atoms>       5 </atoms>
  <types>       2 </types>
  <array name="atoms" >
   <dimension dim="1">ion</dimension>
   <field type="string">element</field>
   <field type="int">atomtype</field>
   <set>
    <rc><c>Bi</c><c>   1</c></rc>
    <rc><c>Bi</c><c>   1</c></rc>
    <rc><c>Te</c><c>   2</c></rc>
    <rc><c>Te</c><c>   2</c></rc>
    <rc><c>Te</c><c>   2</c></rc>
   </set>
  </array>
  <array name="atomtypes" >
   <dimension dim="1">type</dimension>
   <field type="int">atomspertype</field>
   <field type="string">element</field>
   <field>mass</field>
   <field>valence</field>
   <field type="string">pseudopotential</field>
   <set>
    <rc><c>   2</c><c>Bi</c><c>    208.98000000</c><c>      5.00000000</c><c>  PAW_PBE Bi 08Apr2002                  </c></rc>
    <rc><c>   3</c><c>Te</c><c>    127.60000000</c><c>      6.00000000</c><c>  PAW_PBE Te 08Apr2002                  </c></rc>
   </set>
  </array>
 </atominfo>
 <structure name="initialpos" >
  <crystal>
   <varray name="basis" >
    <v>      10.22228271      -2.21667734       0.00000000 </v>
    <v>      10.22228271       2.21667734       0.00000000 </v>
    <v>       9.74160157       0.00000000       3.80918902 </v>
   </varray>
   <i name="volume">    172.62865583 </i>
   <varray name="rec_basis" >
    <v>       0.04891275      -0.22556282      -0.12508924 </v>
    <v>       0.04891275       0.22556282      -0.12508924 </v>
    <v>      -0.00000000       0.00000000       0.26252307 </v>
   </varray>
  </crystal>
  <varray name="positions" >
   <v>       0.39979833       0.39979833       0.39979833 </v>
   <v>       0.60020167       0.60020167       0.60020167 </v>
   <v>       0.00000000       0.00000000       0.00000000 </v>
   <v>       0.21048582       0.21048582       0.21048582 </v>
   <v>       0.78951418       0.78951418       0.78951418 </v>
  </varray>
 </structure>
 <calculation>
  <scstep>
   <time name="total">  238.20  238.50</time>
   <energy>
    <i name="alphaZ">      5.99831677 </i>
    <i name="ewald">   -983.58522533 </i>
    <i name="hartreedc">    -59.98562904 </i>
    <i name="XCdc">   -303.85049003 </i>
    <i name="pawpsdc">   1910.19755357 </i>
    <i name="pawaedc">  -1561.17602897 </i>
    <i name="eentropy">     -0.00024121 </i>
    <i name="bandstr">    155.31179034 </i>
    <i name="atom">    971.44149227 </i>
    <i name="e_fr_energy">    134.35153838 </i>
    <i name="e_wo_entrp">    134.35177959 </i>
    <i name="e_0_energy">    134.35165899 </i>
   </energy>
  </scstep>
  <scstep>
   <time name="total">  258.12  258.17</time>
   <energy>
    <i name="e_fr_energy">      5.77465644 </i>
    <i name="e_wo_entrp">      5.77484692 </i>
    <i name="e_0_energy">      5.77475168 </i>
   </energy>
  </scstep>
  <scstep>
   <time name="total">  255.52  255.81</time>
   <energy>
    <i name="e_fr_energy">     -6.24290816 </i>
    <i name="e_wo_entrp">     -6.24290816 </i>
    <i name="e_0_energy">     -6.24290816 </i>
   </energy>
  </scstep>
  <scstep>
   <time name="total">  260.43  261.62</time>
   <energy>
    <i name="e_fr_energy">     -6.57516189 </i>
    <i name="e_wo_entrp">     -6.57516189 </i>
    <i name="e_0_energy">     -6.57516189 </i>
   </energy>
  </scstep>
  <scstep>
   <time name="total">  249.71  249.95</time>
   <energy>
    <i name="e_fr_energy">     -6.58138448 </i>
    <i name="e_wo_entrp">     -6.58138448 </i>
    <i name="e_0_energy">     -6.58138448 </i>
   </energy>
  </scstep>
  <scstep>
   <time name="total">  213.04  213.06</time>
   <energy>
    <i name="e_fr_energy">     -6.58138448 </i>
    <i name="e_wo_entrp">     -6.58138448 </i>
    <i name="e_0_energy">     -6.58138448 </i>
   </energy>
  </scstep>
  <scstep>
   <time name="total">  213.31  213.33</time>
   <energy>
    <i name="e_fr_energy">     -6.58159157 </i>
    <i name="e_wo_entrp">     -6.58159157 </i>
    <i name="e_0_energy">     -6.58159157 </i>
   </energy>
  </scstep>
  <scstep>
   <time name="total">  212.50  212.71</time>
   <energy>
    <i name="e_fr_energy">     -6.58164571 </i>
    <i name="e_wo_entrp">     -6.58164571 </i>
    <i name="e_0_energy">     -6.58164571 </i>
   </energy>
  </scstep>
  <scstep>
   <time name="total">  213.20  213.22</time>
   <energy>
    <i name="e_fr_energy">     -6.58166315 </i>
    <i name="e_wo_entrp">     -6.58166315 </i>
    <i name="e_0_energy">     -6.58166315 </i>
   </energy>
  </scstep>
  <scstep>
   <time name="total">  212.89  212.93</time>
   <energy>
    <i name="e_fr_energy">     -6.58166462 </i>
    <i name="e_wo_entrp">     -6.58166462 </i>
    <i name="e_0_energy">     -6.58166462 </i>
   </energy>
  </scstep>
  <scstep>
   <time name="total">  213.32  213.34</time>
   <energy>
    <i name="e_fr_energy">     -6.58166474 </i>
    <i name="e_wo_entrp">     -6.58166474 </i>
    <i name="e_0_energy">     -6.58166474 </i>
   </energy>
  </scstep>
  <scstep>
   <time name="total">  280.91  281.01</time>
   <energy>
    <i name="alphaZ">      5.99831677 </i>
    <i name="ewald">   -983.58522533 </i>
    <i name="hartreedc">    -59.98562904 </i>
    <i name="XCdc">   -303.85049003 </i>
    <i name="pawpsdc">   1910.19755357 </i>
    <i name="pawaedc">  -1561.17602897 </i>
    <i name="eentropy">     -0.00000000 </i>
    <i name="bandstr">     14.37834599 </i>
    <i name="atom">    971.44149227 </i>
    <i name="e_fr_energy">     -6.58166476 </i>
    <i name="e_wo_entrp">     -6.58166476 </i>
    <i name="e_0_energy">     -6.58166476 </i>
   </energy>
  </scstep>
  <structure>
   <crystal>
    <varray name="basis" >
     <v>      10.22228271      -2.21667734       0.00000000 </v>
     <v>      10.22228271       2.21667734       0.00000000 </v>
     <v>       9.74160157       0.00000000       3.80918902 </v>
    </varray>
    <i name="volume">    172.62865583 </i>
    <varray name="rec_basis" >
     <v>       0.04891275      -0.22556282      -0.12508924 </v>
     <v>       0.04891275       0.22556282      -0.12508924 </v>
     <v>      -0.00000000       0.00000000       0.26252307 </v>
    </varray>
   </crystal>
   <varray name="positions" >
    <v>       0.39979833       0.39979833       0.39979833 </v>
    <v>       0.60020167       0.60020167       0.60020167 </v>
    <v>       0.00000000       0.00000000       0.00000000 </v>
    <v>       0.21048582       0.21048582       0.21048582 </v>
    <v>       0.78951418       0.78951418       0.78951418 </v>
   </varray>
  </structure>
  <varray name="forces" >
   <v>       0.11963260       0.00000504       0.31556770 </v>
   <v>      -0.11963042       0.00000508      -0.31556853 </v>
   <v>      -0.00000084      -0.00000339       0.00000052 </v>
   <v>       0.25678704      -0.00000352       0.80524525 </v>
   <v>      -0.25678837      -0.00000320      -0.80524494 </v>
  </varray>
  <varray name="stress" >
   <v>     101.24486393      -0.00000842     -68.67517640 </v>
   <v>      -0.00000612     370.57743923       0.00001232 </v>
   <v>     -68.67517524       0.00001250     291.84058023 </v>
  </varray>
  <energy>
   <i name="e_fr_energy">     -8.02172397 </i>
   <i name="e_wo_entrp">     -8.02172397 </i>
   <i name="e_0_energy">     -0.00000000 </i>
  </energy>
  <time name="totalsc"> 3051.04 3053.71</time>
  <eigenvalues>
   <array>
    <dimension dim="1">band</dimension>
    <dimension dim="2">kpoint</dimension>
    <dimension dim="3">spin</dimension>
    <field>eigene</field>
    <field>occ</field>
    <set>
     <set comment="spin 1">
      <set comment="kpoint 1">
       <r>   -7.3803    1.0000 </r>
       <r>   -7.3803    1.0000 </r>
       <r>   -7.1197    1.0000 </r>
       <r>   -7.1197    1.0000 </r>
       <r>   -5.2664    1.0000 </r>
       <r>   -5.2664    1.0000 </r>
       <r>   -4.0811    1.0000 </r>
       <r>   -4.0811    1.0000 </r>
       <r>   -2.5394    1.0000 </r>
       <r>   -2.5394    1.0000 </r>
       <r>    2.3286    1.0000 </r>
       <r>    2.3287    1.0000 </r>
       <r>    2.4937    1.0000 </r>
       <r>    2.4937    1.0000 </r>
       <r>    3.0296    1.0000 </r>
       <r>    3.0296    1.0000 </r>
       <r>    3.5431    1.0000 </r>
       <r>    3.5431    1.0000 </r>
       <r>    3.7070    1.0000 </r>
       <r>    3.7070    1.0000 </r>
       <r>    3.9434    1.0000 </r>
       <r>    3.9434    1.0000 </r>
       <r>    4.5708    1.0000 </r>
       <r>    4.5708    1.0000 </r>
       <r>    4.7189    1.0000 </r>
       <r>    4.7189    1.0000 </r>
       <r>    5.3456    1.0000 </r>
       <r>    5.3456    1.0000 </r>
       <r>    5.5468    0.0000 </r>
       <r>    5.5468    0.0000 </r>
       <r>    6.4791    0.0000 </r>
       <r>    6.4791    0.0000 </r>
       <r>    6.7876    0.0000 </r>
       <r>    6.7876    0.0000 </r>
       <r>    7.4299    0.0000 </r>
       <r>    7.4299    0.0000 </r>
       <r>    8.1814    0.0000 </r>
       <r>    8.1814    0.0000 </r>
       <r>    8.3948    0.0000 </r>
       <r>    8.3948    0.0000 </r>
       <r>   10.3747    0.0000 </r>
       <r>   10.3747    0.0000 </r>
       <r>   10.6103    0.0000 </r>
       <r>   10.6103    0.0000 </r>
       <r>   11.0109    0.0000 </r>
       <r>   11.0109    0.0000 </r>
       <r>   11.3309    0.0000 </r>
       <r>   11.3310    0.0000 </r>
       <r>   11.8789    0.0000 </r>
       <r>   11.8790    0.0000 </r>
       <r>   12.5754    0.0000 </r>
       <r>   12.5754    0.0000 </r>
       <r>   12.7007    0.0000 </r>
       <r>   12.7008    0.0000 </r>
       <r>   12.9353    0.0000 </r>
       <r>   12.9353    0.0000 </r>
       <r>   13.1473    0.0000 </r>
       <r>   13.1473    0.0000 </r>
       <r>   13.2676    0.0000 </r>
       <r>   13.2677    0.0000 </r>
       <r>   13.7555    0.0000 </r>
       <r>   13.7556    0.0000 </r>
       <r>   14.0111    0.0000 </r>
       <r>   14.0112    0.0000 </r>
       <r>   14.5275    0.0000 </r>
       <r>   14.5275    0.0000 </r>
       <r>   14.9800    0.0000 </r>
       <r>   14.9800    0.0000 </r>
       <r>   15.3426    0.0000 </r>
       <r>   15.3426    0.0000 </r>
       <r>   15.8453    0.0000 </r>
       <r>   15.8453    0.0000 </r>
       <r>   16.8205    0.0000 </r>
       <r>   16.8205    0.0000 </r>
       <r>   16.9959    0.0000 </r>
       <r>   16.9960    0.0000 </r>
       <r>   17.7451    0.0000 </r>
       <r>   17.7451    0.0000 </r>
       <r>   18.1399    0.0000 </r>
       <r>   18.1399    0.0000 </r>
       <r>   18.3103    0.0000 </r>
       <r>   18.3103    0.0000 </r>
       <r>   18.8104    0.0000 </r>
       <r>   18.8106    0.0000 </r>
       <r>   19.0020    0.0000 </r>
       <r>   19.0027    0.0000 </r>
       <r>   19.6132    0.0000 </r>
       <r>   19.6420    0.0000 </r>
      </set>
      <set comment="kpoint 2">
       <r>   -7.4059    1.0000 </r>
       <r>   -7.4059    1.0000 </r>
       <r>   -7.0949    1.0000 </r>
       <r>   -7.0949    1.0000 </r>
       <r>   -5.3106    1.0000 </r>
       <r>   -5.3106    1.0000 </r>
       <r>   -4.0254    1.0000 </r>
       <r>   -4.0254    1.0000 </r>
       <r>   -2.5553    1.0000 </r>
       <r>   -2.5553    1.0000 </r>
       <r>    2.3768    1.0000 </r>
       <r>    2.3768    1.0000 </r>
       <r>    2.5048    1.0000 </r>
       <r>    2.5048    1.0000 </r>
       <r>    3.0152    1.0000 </r>
       <r>    3.0152    1.0000 </r>
       <r>    3.5475    1.0000 </r>
       <r>    3.5475    1.0000 </r>
       <r>    3.6929    1.0000 </r>
       <r>    3.6929    1.0000 </r>
       <r>    3.9563    1.0000 </r>
       <r>    3.9564    1.0000 </r>
       <r>    4.5736    1.0000 </r>
       <r>    4.5736    1.0000 </r>
       <r>    4.8183    1.0000 </r>
       <r>    4.8183    1.0000 </r>
       <r>    5.3174    1.0000 </r>
       <r>    5.3174    1.0000 </r>
       <r>    5.5524    0.0000 </r>
       <r>    5.5524    0.0000 </r>
       <r>    6.3845    0.0000 </r>
       <r>    6.3845    0.0000 </r>
       <r>    6.7630    0.0000 </r>
       <r>    6.7630    0.0000 </r>
       <r>    7.4367    0.0000 </r>
       <r>    7.4367    0.0000 </r>
       <r>    8.1935    0.0000 </r>
       <r>    8.1935    0.0000 </r>
       <r>    8.4002    0.0000 </r>
       <r>    8.4002    0.0000 </r>
       <r>   10.4349    0.0000 </r>
       <r>   10.4350    0.0000 </r>
       <r>   10.5511    0.0000 </r>
       <r>   10.5511    0.0000 </r>
       <r>   11.0010    0.0000 </r>
       <r>   11.0011    0.0000 </r>
       <r>   11.2816    0.0000 </r>
       <r>   11.2816    0.0000 </r>
       <r>   12.0620    0.0000 </r>
       <r>   12.0620    0.0000 </r>
       <r>   12.4890    0.0000 </r>
       <r>   12.4890    0.0000 </r>
       <r>   12.8900    0.0000 </r>
       <r>   12.8900    0.0000 </r>
       <r>   12.9671    0.0000 </r>
       <r>   12.9671    0.0000 </r>
       <r>   12.9921    0.0000 </r>
       <r>   12.9922    0.0000 </r>
       <r>   13.0670    0.0000 </r>
       <r>   13.0670    0.0000 </r>
       <r>   13.7574    0.0000 </r>
       <r>   13.7574    0.0000 </r>
       <r>   13.7702    0.0000 </r>
       <r>   13.7702    0.0000 </r>
       <r>   14.7471    0.0000 </r>
       <r>   14.7471    0.0000 </r>
       <r>   15.1157    0.0000 </r>
       <r>   15.1157    0.0000 </r>
       <r>   15.5244    0.0000 </r>
       <r>   15.5244    0.0000 </r>
       <r>   15.5901    0.0000 </r>
       <r>   15.5901    0.0000 </r>
       <r>   16.5958    0.0000 </r>
       <r>   16.5958    0.0000 </r>
       <r>   16.7161    0.0000 </r>
       <r>   16.7161    0.0000 </r>
       <r>   18.0699    0.0000 </r>
       <r>   18.0699    0.0000 </r>
       <r>   18.3820    0.0000 </r>
       <r>   18.3820    0.0000 </r>
       <r>   18.5475    0.0000 </r>
       <r>   18.5476    0.0000 </r>
       <r>   18.6582    0.0000 </r>
       <r>   18.6587    0.0000 </r>
       <r>   19.2055    0.0000 </r>
       <r>   19.2413    0.0000 </r>
       <r>   19.3520    0.0000 </r>
       <r>   19.4140    0.0000 </r>
      </set>
      <set comment="kpoint 3">
       <r>   -7.3917    1.0000 </r>
       <r>   -7.3917    1.0000 </r>
       <r>   -7.1098    1.0000 </r>
       <r>   -7.1098    1.0000 </r>
       <r>   -5.2849    1.0000 </r>
       <r>   -5.2849    1.0000 </r>
       <r>   -4.0580    1.0000 </r>
       <r>   -4.0580    1.0000 </r>
       <r>   -2.5449    1.0000 </r>
       <r>   -2.5449    1.0000 </r>
       <r>    2.3527    1.0000 </r>
       <r>    2.3527    1.0000 </r>
       <r>    2.5004    1.0000 </r>
       <r>    2.5004    1.0000 </r>
       <r>    3.0209    1.0000 </r>
       <r>    3.0209    1.0000 </r>
       <r>    3.5457    1.0000 </r>
       <r>    3.5457    1.0000 </r>
       <r>    3.7003    1.0000 </r>
       <r>    3.7003    1.0000 </r>
       <r>    3.9458    1.0000 </r>
       <r>    3.9458    1.0000 </r>
       <r>    4.5775    1.0000 </r>
       <r>    4.5775    1.0000 </r>
       <r>    4.7668    1.0000 </r>
       <r>    4.7668    1.0000 </r>
       <r>    5.3361    1.0000 </r>
       <r>    5.3361    1.0000 </r>
       <r>    5.5440    0.0000 </r>
       <r>    5.5440    0.0000 </r>
       <r>    6.4315    0.0000 </r>
       <r>    6.4315    0.0000 </r>
       <r>    6.7732    0.0000 </r>
       <r>    6.7732    0.0000 </r>
       <r>    7.4329    0.0000 </r>
       <r>    7.4329    0.0000 </r>
       <r>    8.1904    0.0000 </r>
       <r>    8.1904    0.0000 </r>
       <r>    8.3999    0.0000 </r>
       <r>    8.3999    0.0000 </r>
       <r>   10.4116    0.0000 </r>
       <r>   10.4117    0.0000 </r>
       <r>   10.5775    0.0000 </r>
       <r>   10.5776    0.0000 </r>
       <r>   10.9992    0.0000 </r>
       <r>   10.9992    0.0000 </r>
       <r>   11.3041    0.0000 </r>
       <r>   11.3041    0.0000 </r>
       <r>   11.9698    0.0000 </r>
       <r>   11.9699    0.0000 </r>
       <r>   12.5388    0.0000 </r>
       <r>   12.5389    0.0000 </r>
       <r>   12.8018    0.0000 </r>
       <r>   12.8019    0.0000 </r>
       <r>   12.9378    0.0000 </r>
       <r>   12.9378    0.0000 </r>
       <r>   13.0608    0.0000 </r>
       <r>   13.0608    0.0000 </r>
       <r>   13.1590    0.0000 </r>
       <r>   13.1590    0.0000 </r>
       <r>   13.7563    0.0000 </r>
       <r>   13.7563    0.0000 </r>
       <r>   13.8860    0.0000 </r>
       <r>   13.8860    0.0000 </r>
       <r>   14.6395    0.0000 </r>
       <r>   14.6395    0.0000 </r>
       <r>   15.0578    0.0000 </r>
       <r>   15.0578    0.0000 </r>
       <r>   15.4593    0.0000 </r>
       <r>   15.4593    0.0000 </r>
       <r>   15.6920    0.0000 </r>
       <r>   15.6920    0.0000 </r>
       <r>   16.7224    0.0000 </r>
       <r>   16.7225    0.0000 </r>
       <r>   16.8331    0.0000 </r>
       <r>   16.8331    0.0000 </r>
       <r>   17.9082    0.0000 </r>
       <r>   17.9082    0.0000 </r>
       <r>   18.3243    0.0000 </r>
       <r>   18.3244    0.0000 </r>
       <r>   18.4751    0.0000 </r>
       <r>   18.4753    0.0000 </r>
       <r>   18.6322    0.0000 </r>
       <r>   18.6325    0.0000 </r>
       <r>   19.1704    0.0000 </r>
       <r>   19.1750    0.0000 </r>
       <r>   19.4356    0.0000 </r>
       <r>   19.4411    0.0000 </r>
      </set>
      <set comment="kpoint 4">
       <r>   -7.3729    1.0000 </r>
       <r>   -7.3729    1.0000 </r>
       <r>   -7.1234    1.0000 </r>
       <r>   -7.1234    1.0000 </r>
       <r>   -5.2562    1.0000 </r>
       <r>   -5.2562    1.0000 </r>
       <r>   -4.0937    1.0000 </r>
       <r>   -4.0937    1.0000 </r>
       <r>   -2.5387    1.0000 </r>
       <r>   -2.5387    1.0000 </r>
       <r>    2.3051    1.0000 </r>
       <r>    2.3051    1.0000 </r>
       <r>    2.4848    1.0000 </r>
       <r>    2.4849    1.0000 </r>
       <r>    3.0405    1.0000 </r>
       <r>    3.0405    1.0000 </r>
       <r>    3.5385    1.0000 </r>
       <r>    3.5385    1.0000 </r>
       <r>    3.7125    1.0000 </r>
       <r>    3.7125    1.0000 </r>
       <r>    3.9503    1.0000 </r>
       <r>    3.9503    1.0000 </r>
       <r>    4.5487    1.0000 </r>
       <r>    4.5487    1.0000 </r>
       <r>    4.6814    1.0000 </r>
       <r>    4.6815    1.0000 </r>
       <r>    5.3442    1.0000 </r>
       <r>    5.3442    1.0000 </r>
       <r>    5.5617    0.0000 </r>
       <r>    5.5617    0.0000 </r>
       <r>    6.5256    0.0000 </r>
       <r>    6.5256    0.0000 </r>
       <r>    6.8062    0.0000 </r>
       <r>    6.8062    0.0000 </r>
       <r>    7.4285    0.0000 </r>
       <r>    7.4285    0.0000 </r>
       <r>    8.1671    0.0000 </r>
       <r>    8.1671    0.0000 </r>
       <r>    8.3849    0.0000 </r>
       <r>    8.3849    0.0000 </r>
       <r>   10.3294    0.0000 </r>
       <r>   10.3294    0.0000 </r>
       <r>   10.6473    0.0000 </r>
       <r>   10.6474    0.0000 </r>
       <r>   11.0312    0.0000 </r>
       <r>   11.0312    0.0000 </r>
       <r>   11.3619    0.0000 </r>
       <r>   11.3620    0.0000 </r>
       <r>   11.7931    0.0000 </r>
       <r>   11.7932    0.0000 </r>
       <r>   12.5858    0.0000 </r>
       <r>   12.5859    0.0000 </r>
       <r>   12.6096    0.0000 </r>
       <r>   12.6097    0.0000 </r>
       <r>   12.9723    0.0000 </r>
       <r>   12.9723    0.0000 </r>
       <r>   13.2401    0.0000 </r>
       <r>   13.2401    0.0000 </r>
       <r>   13.3784    0.0000 </r>
       <r>   13.3785    0.0000 </r>
       <r>   13.7593    0.0000 </r>
       <r>   13.7593    0.0000 </r>
       <r>   14.1377    0.0000 </r>
       <r>   14.1378    0.0000 </r>
       <r>   14.4193    0.0000 </r>
       <r>   14.4193    0.0000 </r>
       <r>   14.8876    0.0000 </r>
       <r>   14.8876    0.0000 </r>
       <r>   15.2257    0.0000 </r>
       <r>   15.2257    0.0000 </r>
       <r>   15.9922    0.0000 </r>
       <r>   15.9923    0.0000 </r>
       <r>   16.9278    0.0000 </r>
       <r>   16.9278    0.0000 </r>
       <r>   17.1371    0.0000 </r>
       <r>   17.1372    0.0000 </r>
       <r>   17.6053    0.0000 </r>
       <r>   17.6053    0.0000 </r>
       <r>   17.9515    0.0000 </r>
       <r>   17.9516    0.0000 </r>
       <r>   18.1471    0.0000 </r>
       <r>   18.1472    0.0000 </r>
       <r>   18.8089    0.0000 </r>
       <r>   18.8090    0.0000 </r>
       <r>   19.0111    0.0000 </r>
       <r>   19.0112    0.0000 </r>
       <r>   19.8168    0.0000 </r>
       <r>   19.8788    0.0000 </r>
      </set>
      <set comment="kpoint 5">
       <r>   -7.3702    1.0000 </r>
       <r>   -7.3702    1.0000 </r>
       <r>   -7.1200    1.0000 </r>
       <r>   -7.1200    1.0000 </r>
       <r>   -5.2548    1.0000 </r>
       <r>   -5.2548    1.0000 </r>
       <r>   -4.0952    1.0000 </r>
       <r>   -4.0952    1.0000 </r>
       <r>   -2.5430    1.0000 </r>
       <r>   -2.5430    1.0000 </r>
       <r>    2.2827    1.0000 </r>
       <r>    2.2827    1.0000 </r>
       <r>    2.4740    1.0000 </r>
       <r>    2.4740    1.0000 </r>
       <r>    3.0533    1.0000 </r>
       <r>    3.0533    1.0000 </r>
       <r>    3.5308    1.0000 </r>
       <r>    3.5308    1.0000 </r>
       <r>    3.7162    1.0000 </r>
       <r>    3.7162    1.0000 </r>
       <r>    3.9667    1.0000 </r>
       <r>    3.9667    1.0000 </r>
       <r>    4.5114    1.0000 </r>
       <r>    4.5114    1.0000 </r>
       <r>    4.6566    1.0000 </r>
       <r>    4.6566    1.0000 </r>
       <r>    5.3329    1.0000 </r>
       <r>    5.3329    1.0000 </r>
       <r>    5.5870    0.0000 </r>
       <r>    5.5870    0.0000 </r>
       <r>    6.5693    0.0000 </r>
       <r>    6.5693    0.0000 </r>
       <r>    6.8289    0.0000 </r>
       <r>    6.8289    0.0000 </r>
       <r>    7.4295    0.0000 </r>
       <r>    7.4295    0.0000 </r>
       <r>    8.1478    0.0000 </r>
       <r>    8.1478    0.0000 </r>
       <r>    8.3702    0.0000 </r>
       <r>    8.3702    0.0000 </r>
       <r>   10.2797    0.0000 </r>
       <r>   10.2797    0.0000 </r>
       <r>   10.6878    0.0000 </r>
       <r>   10.6879    0.0000 </r>
       <r>   11.0539    0.0000 </r>
       <r>   11.0539    0.0000 </r>
       <r>   11.3969    0.0000 </r>
       <r>   11.3969    0.0000 </r>
       <r>   11.7173    0.0000 </r>
       <r>   11.7173    0.0000 </r>
       <r>   12.4971    0.0000 </r>
       <r>   12.4971    0.0000 </r>
       <r>   12.6118    0.0000 </r>
       <r>   12.6119    0.0000 </r>
       <r>   13.0398    0.0000 </r>
       <r>   13.0398    0.0000 </r>
       <r>   13.3389    0.0000 </r>
       <r>   13.3389    0.0000 </r>
       <r>   13.4852    0.0000 </r>
       <r>   13.4853    0.0000 </r>
       <r>   13.7648    0.0000 </r>
       <r>   13.7649    0.0000 </r>
       <r>   14.2569    0.0000 </r>
       <r>   14.2570    0.0000 </r>
       <r>   14.3289    0.0000 </r>
       <r>   14.3289    0.0000 </r>
       <r>   14.7875    0.0000 </r>
       <r>   14.7875    0.0000 </r>
       <r>   15.1094    0.0000 </r>
       <r>   15.1094    0.0000 </r>
       <r>   16.1254    0.0000 </r>
       <r>   16.1254    0.0000 </r>
       <r>   17.0334    0.0000 </r>
       <r>   17.0334    0.0000 </r>
       <r>   17.1992    0.0000 </r>
       <r>   17.1992    0.0000 </r>
       <r>   17.5304    0.0000 </r>
       <r>   17.5304    0.0000 </r>
       <r>   17.7675    0.0000 </r>
       <r>   17.7675    0.0000 </r>
       <r>   18.0199    0.0000 </r>
       <r>   18.0199    0.0000 </r>
       <r>   18.6336    0.0000 </r>
       <r>   18.6336    0.0000 </r>
       <r>   19.2050    0.0000 </r>
       <r>   19.2054    0.0000 </r>
       <r>   20.0058    0.0000 </r>
       <r>   20.1264    0.0000 </r>
      </set>
      <set comment="kpoint 6">
       <r>   -7.3759    1.0000 </r>
       <r>   -7.3759    1.0000 </r>
       <r>   -7.1156    1.0000 </r>
       <r>   -7.1156    1.0000 </r>
       <r>   -5.2643    1.0000 </r>
       <r>   -5.2643    1.0000 </r>
       <r>   -4.0822    1.0000 </r>
       <r>   -4.0822    1.0000 </r>
       <r>   -2.5476    1.0000 </r>
       <r>   -2.5476    1.0000 </r>
       <r>    2.3158    1.0000 </r>
       <r>    2.3158    1.0000 </r>
       <r>    2.4917    1.0000 </r>
       <r>    2.4917    1.0000 </r>
       <r>    2.9721    1.0000 </r>
       <r>    2.9721    1.0000 </r>
       <r>    3.5513    1.0000 </r>
       <r>    3.5513    1.0000 </r>
       <r>    3.7585    1.0000 </r>
       <r>    3.7585    1.0000 </r>
       <r>    3.9489    1.0000 </r>
       <r>    3.9489    1.0000 </r>
       <r>    4.5298    1.0000 </r>
       <r>    4.5298    1.0000 </r>
       <r>    4.7031    1.0000 </r>
       <r>    4.7031    1.0000 </r>
       <r>    5.1992    1.0000 </r>
       <r>    5.1992    1.0000 </r>
       <r>    5.7101    0.0000 </r>
       <r>    5.7101    0.0000 </r>
       <r>    6.4760    0.0000 </r>
       <r>    6.4761    0.0000 </r>
       <r>    6.8251    0.0000 </r>
       <r>    6.8251    0.0000 </r>
       <r>    7.4169    0.0000 </r>
       <r>    7.4169    0.0000 </r>
       <r>    8.1885    0.0000 </r>
       <r>    8.1885    0.0000 </r>
       <r>    8.4014    0.0000 </r>
       <r>    8.4014    0.0000 </r>
       <r>   10.3850    0.0000 </r>
       <r>   10.3850    0.0000 </r>
       <r>   10.5834    0.0000 </r>
       <r>   10.5834    0.0000 </r>
       <r>   11.0104    0.0000 </r>
       <r>   11.0104    0.0000 </r>
       <r>   11.3575    0.0000 </r>
       <r>   11.3575    0.0000 </r>
       <r>   11.8108    0.0000 </r>
       <r>   11.8109    0.0000 </r>
       <r>   12.5608    0.0000 </r>
       <r>   12.5608    0.0000 </r>
       <r>   12.7723    0.0000 </r>
       <r>   12.7723    0.0000 </r>
       <r>   12.9349    0.0000 </r>
       <r>   12.9350    0.0000 </r>
       <r>   13.1409    0.0000 </r>
       <r>   13.1409    0.0000 </r>
       <r>   13.3277    0.0000 </r>
       <r>   13.3278    0.0000 </r>
       <r>   13.7694    0.0000 </r>
       <r>   13.7695    0.0000 </r>
       <r>   14.0542    0.0000 </r>
       <r>   14.0542    0.0000 </r>
       <r>   14.5118    0.0000 </r>
       <r>   14.5118    0.0000 </r>
       <r>   14.8675    0.0000 </r>
       <r>   14.8675    0.0000 </r>
       <r>   15.4885    0.0000 </r>
       <r>   15.4885    0.0000 </r>
       <r>   15.8468    0.0000 </r>
       <r>   15.8469    0.0000 </r>
       <r>   16.8367    0.0000 </r>
       <r>   16.8367    0.0000 </r>
       <r>   17.0139    0.0000 </r>
       <r>   17.0140    0.0000 </r>
       <r>   17.7154    0.0000 </r>
       <r>   17.7154    0.0000 </r>
       <r>   18.0059    0.0000 </r>
       <r>   18.0060    0.0000 </r>
       <r>   18.4272    0.0000 </r>
       <r>   18.4272    0.0000 </r>
       <r>   18.7704    0.0000 </r>
       <r>   18.7704    0.0000 </r>
       <r>   19.0430    0.0000 </r>
       <r>   19.0479    0.0000 </r>
       <r>   19.4669    0.0000 </r>
       <r>   19.4703    0.0000 </r>
      </set>
      <set comment="kpoint 7">
       <r>   -7.3792    1.0000 </r>
       <r>   -7.3792    1.0000 </r>
       <r>   -7.1187    1.0000 </r>
       <r>   -7.1187    1.0000 </r>
       <r>   -5.2659    1.0000 </r>
       <r>   -5.2659    1.0000 </r>
       <r>   -4.0814    1.0000 </r>
       <r>   -4.0814    1.0000 </r>
       <r>   -2.5414    1.0000 </r>
       <r>   -2.5414    1.0000 </r>
       <r>    2.3255    1.0000 </r>
       <r>    2.3255    1.0000 </r>
       <r>    2.4932    1.0000 </r>
       <r>    2.4932    1.0000 </r>
       <r>    3.0138    1.0000 </r>
       <r>    3.0138    1.0000 </r>
       <r>    3.5461    1.0000 </r>
       <r>    3.5461    1.0000 </r>
       <r>    3.7206    1.0000 </r>
       <r>    3.7206    1.0000 </r>
       <r>    3.9446    1.0000 </r>
       <r>    3.9446    1.0000 </r>
       <r>    4.5611    1.0000 </r>
       <r>    4.5611    1.0000 </r>
       <r>    4.7140    1.0000 </r>
       <r>    4.7140    1.0000 </r>
       <r>    5.2933    1.0000 </r>
       <r>    5.2933    1.0000 </r>
       <r>    5.6035    0.0000 </r>
       <r>    5.6035    0.0000 </r>
       <r>    6.4784    0.0000 </r>
       <r>    6.4784    0.0000 </r>
       <r>    6.7972    0.0000 </r>
       <r>    6.7972    0.0000 </r>
       <r>    7.4265    0.0000 </r>
       <r>    7.4265    0.0000 </r>
       <r>    8.1832    0.0000 </r>
       <r>    8.1832    0.0000 </r>
       <r>    8.3965    0.0000 </r>
       <r>    8.3965    0.0000 </r>
       <r>   10.3774    0.0000 </r>
       <r>   10.3774    0.0000 </r>
       <r>   10.6032    0.0000 </r>
       <r>   10.6033    0.0000 </r>
       <r>   11.0108    0.0000 </r>
       <r>   11.0108    0.0000 </r>
       <r>   11.3378    0.0000 </r>
       <r>   11.3378    0.0000 </r>
       <r>   11.8606    0.0000 </r>
       <r>   11.8607    0.0000 </r>
       <r>   12.5712    0.0000 </r>
       <r>   12.5712    0.0000 </r>
       <r>   12.7204    0.0000 </r>
       <r>   12.7204    0.0000 </r>
       <r>   12.9339    0.0000 </r>
       <r>   12.9339    0.0000 </r>
       <r>   13.1481    0.0000 </r>
       <r>   13.1481    0.0000 </r>
       <r>   13.2816    0.0000 </r>
       <r>   13.2816    0.0000 </r>
       <r>   13.7584    0.0000 </r>
       <r>   13.7584    0.0000 </r>
       <r>   14.0227    0.0000 </r>
       <r>   14.0227    0.0000 </r>
       <r>   14.5243    0.0000 </r>
       <r>   14.5243    0.0000 </r>
       <r>   14.9424    0.0000 </r>
       <r>   14.9424    0.0000 </r>
       <r>   15.3878    0.0000 </r>
       <r>   15.3878    0.0000 </r>
       <r>   15.8456    0.0000 </r>
       <r>   15.8456    0.0000 </r>
       <r>   16.8246    0.0000 </r>
       <r>   16.8246    0.0000 </r>
       <r>   17.0004    0.0000 </r>
       <r>   17.0004    0.0000 </r>
       <r>   17.7388    0.0000 </r>
       <r>   17.7389    0.0000 </r>
       <r>   18.0876    0.0000 </r>
       <r>   18.0876    0.0000 </r>
       <r>   18.3594    0.0000 </r>
       <r>   18.3594    0.0000 </r>
       <r>   18.7969    0.0000 </r>
       <r>   18.7972    0.0000 </r>
       <r>   19.0132    0.0000 </r>
       <r>   19.0169    0.0000 </r>
       <r>   19.5670    0.0000 </r>
       <r>   19.5758    0.0000 </r>
      </set>
      <set comment="kpoint 8">
       <r>   -7.3792    1.0000 </r>
       <r>   -7.3792    1.0000 </r>
       <r>   -7.1187    1.0000 </r>
       <r>   -7.1187    1.0000 </r>
       <r>   -5.2659    1.0000 </r>
       <r>   -5.2659    1.0000 </r>
       <r>   -4.0814    1.0000 </r>
       <r>   -4.0814    1.0000 </r>
       <r>   -2.5414    1.0000 </r>
       <r>   -2.5414    1.0000 </r>
       <r>    2.3255    1.0000 </r>
       <r>    2.3255    1.0000 </r>
       <r>    2.4932    1.0000 </r>
       <r>    2.4932    1.0000 </r>
       <r>    3.0138    1.0000 </r>
       <r>    3.0138    1.0000 </r>
       <r>    3.5461    1.0000 </r>
       <r>    3.5461    1.0000 </r>
       <r>    3.7206    1.0000 </r>
       <r>    3.7206    1.0000 </r>
       <r>    3.9446    1.0000 </r>
       <r>    3.9446    1.0000 </r>
       <r>    4.5611    1.0000 </r>
       <r>    4.5611    1.0000 </r>
       <r>    4.7140    1.0000 </r>
       <r>    4.7140    1.0000 </r>
       <r>    5.2933    1.0000 </r>
       <r>    5.2933    1.0000 </r>
       <r>    5.6035    0.0000 </r>
       <r>    5.6035    0.0000 </r>
       <r>    6.4784    0.0000 </r>
       <r>    6.4784    0.0000 </r>
       <r>    6.7972    0.0000 </r>
       <r>    6.7972    0.0000 </r>
       <r>    7.4265    0.0000 </r>
       <r>    7.4265    0.0000 </r>
       <r>    8.1832    0.0000 </r>
       <r>    8.1832    0.0000 </r>
       <r>    8.3965    0.0000 </r>
       <r>    8.3965    0.0000 </r>
       <r>   10.3774    0.0000 </r>
       <r>   10.3774    0.0000 </r>
       <r>   10.6032    0.0000 </r>
       <r>   10.6033    0.0000 </r>
       <r>   11.0108    0.0000 </r>
       <r>   11.0108    0.0000 </r>
       <r>   11.3378    0.0000 </r>
       <r>   11.3378    0.0000 </r>
       <r>   11.8606    0.0000 </r>
       <r>   11.8607    0.0000 </r>
       <r>   12.5712    0.0000 </r>
       <r>   12.5712    0.0000 </r>
       <r>   12.7204    0.0000 </r>
       <r>   12.7204    0.0000 </r>
       <r>   12.9339    0.0000 </r>
       <r>   12.9339    0.0000 </r>
       <r>   13.1481    0.0000 </r>
       <r>   13.1481    0.0000 </r>
       <r>   13.2816    0.0000 </r>
       <r>   13.2816    0.0000 </r>
       <r>   13.7584    0.0000 </r>
       <r>   13.7584    0.0000 </r>
       <r>   14.0227    0.0000 </r>
       <r>   14.0227    0.0000 </r>
       <r>   14.5243    0.0000 </r>
       <r>   14.5243    0.0000 </r>
       <r>   14.9424    0.0000 </r>
       <r>   14.9424    0.0000 </r>
       <r>   15.3878    0.0000 </r>
       <r>   15.3878    0.0000 </r>
       <r>   15.8456    0.0000 </r>
       <r>   15.8456    0.0000 </r>
       <r>   16.8246    0.0000 </r>
       <r>   16.8246    0.0000 </r>
       <r>   17.0004    0.0000 </r>
       <r>   17.0004    0.0000 </r>
       <r>   17.7388    0.0000 </r>
       <r>   17.7389    0.0000 </r>
       <r>   18.0876    0.0000 </r>
       <r>   18.0876    0.0000 </r>
       <r>   18.3594    0.0000 </r>
       <r>   18.3594    0.0000 </r>
       <r>   18.7969    0.0000 </r>
       <r>   18.7970    0.0000 </r>
       <r>   19.0129    0.0000 </r>
       <r>   19.0136    0.0000 </r>
       <r>   19.5718    0.0000 </r>
       <r>   19.5856    0.0000 </r>
      </set>
      <set comment="kpoint 9">
       <r>   -7.3759    1.0000 </r>
       <r>   -7.3759    1.0000 </r>
       <r>   -7.1156    1.0000 </r>
       <r>   -7.1156    1.0000 </r>
       <r>   -5.2643    1.0000 </r>
       <r>   -5.2643    1.0000 </r>
       <r>   -4.0822    1.0000 </r>
       <r>   -4.0822    1.0000 </r>
       <r>   -2.5476    1.0000 </r>
       <r>   -2.5476    1.0000 </r>
       <r>    2.3158    1.0000 </r>
       <r>    2.3158    1.0000 </r>
       <r>    2.4917    1.0000 </r>
       <r>    2.4917    1.0000 </r>
       <r>    2.9721    1.0000 </r>
       <r>    2.9721    1.0000 </r>
       <r>    3.5513    1.0000 </r>
       <r>    3.5513    1.0000 </r>
       <r>    3.7585    1.0000 </r>
       <r>    3.7585    1.0000 </r>
       <r>    3.9489    1.0000 </r>
       <r>    3.9489    1.0000 </r>
       <r>    4.5298    1.0000 </r>
       <r>    4.5298    1.0000 </r>
       <r>    4.7031    1.0000 </r>
       <r>    4.7031    1.0000 </r>
       <r>    5.1992    1.0000 </r>
       <r>    5.1992    1.0000 </r>
       <r>    5.7101    0.0000 </r>
       <r>    5.7101    0.0000 </r>
       <r>    6.4760    0.0000 </r>
       <r>    6.4761    0.0000 </r>
       <r>    6.8251    0.0000 </r>
       <r>    6.8251    0.0000 </r>
       <r>    7.4169    0.0000 </r>
       <r>    7.4169    0.0000 </r>
       <r>    8.1885    0.0000 </r>
       <r>    8.1885    0.0000 </r>
       <r>    8.4014    0.0000 </r>
       <r>    8.4014    0.0000 </r>
       <r>   10.3850    0.0000 </r>
       <r>   10.3850    0.0000 </r>
       <r>   10.5834    0.0000 </r>
       <r>   10.5834    0.0000 </r>
       <r>   11.0104    0.0000 </r>
       <r>   11.0104    0.0000 </r>
       <r>   11.3575    0.0000 </r>
       <r>   11.3575    0.0000 </r>
       <r>   11.8108    0.0000 </r>
       <r>   11.8109    0.0000 </r>
       <r>   12.5608    0.0000 </r>
       <r>   12.5608    0.0000 </r>
       <r>   12.7723    0.0000 </r>
       <r>   12.7723    0.0000 </r>
       <r>   12.9349    0.0000 </r>
       <r>   12.9350    0.0000 </r>
       <r>   13.1409    0.0000 </r>
       <r>   13.1409    0.0000 </r>
       <r>   13.3277    0.0000 </r>
       <r>   13.3278    0.0000 </r>
       <r>   13.7694    0.0000 </r>
       <r>   13.7695    0.0000 </r>
       <r>   14.0542    0.0000 </r>
       <r>   14.0542    0.0000 </r>
       <r>   14.5118    0.0000 </r>
       <r>   14.5118    0.0000 </r>
       <r>   14.8675    0.0000 </r>
       <r>   14.8675    0.0000 </r>
       <r>   15.4885    0.0000 </r>
       <r>   15.4885    0.0000 </r>
       <r>   15.8468    0.0000 </r>
       <r>   15.8469    0.0000 </r>
       <r>   16.8367    0.0000 </r>
       <r>   16.8367    0.0000 </r>
       <r>   17.0139    0.0000 </r>
       <r>   17.0140    0.0000 </r>
       <r>   17.7154    0.0000 </r>
       <r>   17.7154    0.0000 </r>
       <r>   18.0059    0.0000 </r>
       <r>   18.0060    0.0000 </r>
       <r>   18.4271    0.0000 </r>
       <r>   18.4272    0.0000 </r>
       <r>   18.7703    0.0000 </r>
       <r>   18.7703    0.0000 </r>
       <r>   19.0433    0.0000 </r>
       <r>   19.0439    0.0000 </r>
       <r>   19.4673    0.0000 </r>
       <r>   19.4736    0.0000 </r>
      </set>
      <set comment="kpoint 10">
       <r>   -7.3311    1.0000 </r>
       <r>   -7.3311    1.0000 </r>
       <r>   -7.0680    1.0000 </r>
       <r>   -7.0680    1.0000 </r>
       <r>   -5.2492    1.0000 </r>
       <r>   -5.2492    1.0000 </r>
       <r>   -4.0831    1.0000 </r>
       <r>   -4.0831    1.0000 </r>
       <r>   -2.6434    1.0000 </r>
       <r>   -2.6434    1.0000 </r>
       <r>    2.1006    1.0000 </r>
       <r>    2.1007    1.0000 </r>
       <r>    2.5077    1.0000 </r>
       <r>    2.5077    1.0000 </r>
       <r>    2.8698    1.0000 </r>
       <r>    2.8698    1.0000 </r>
       <r>    3.4687    1.0000 </r>
       <r>    3.4687    1.0000 </r>
       <r>    3.6191    1.0000 </r>
       <r>    3.6191    1.0000 </r>
       <r>    3.8936    1.0000 </r>
       <r>    3.8936    1.0000 </r>
       <r>    4.4742    1.0000 </r>
       <r>    4.4742    1.0000 </r>
       <r>    4.6192    1.0000 </r>
       <r>    4.6192    1.0000 </r>
       <r>    5.3046    1.0000 </r>
       <r>    5.3046    1.0000 </r>
       <r>    5.6293    0.0000 </r>
       <r>    5.6293    0.0000 </r>
       <r>    6.6718    0.0000 </r>
       <r>    6.6718    0.0000 </r>
       <r>    6.8718    0.0000 </r>
       <r>    6.8718    0.0000 </r>
       <r>    7.5800    0.0000 </r>
       <r>    7.5800    0.0000 </r>
       <r>    8.2858    0.0000 </r>
       <r>    8.2858    0.0000 </r>
       <r>    8.5004    0.0000 </r>
       <r>    8.5004    0.0000 </r>
       <r>   10.2567    0.0000 </r>
       <r>   10.2567    0.0000 </r>
       <r>   10.6436    0.0000 </r>
       <r>   10.6437    0.0000 </r>
       <r>   10.9184    0.0000 </r>
       <r>   10.9185    0.0000 </r>
       <r>   11.4434    0.0000 </r>
       <r>   11.4434    0.0000 </r>
       <r>   11.8246    0.0000 </r>
       <r>   11.8246    0.0000 </r>
       <r>   12.5541    0.0000 </r>
       <r>   12.5542    0.0000 </r>
       <r>   12.6848    0.0000 </r>
       <r>   12.6848    0.0000 </r>
       <r>   12.9841    0.0000 </r>
       <r>   12.9842    0.0000 </r>
       <r>   13.0998    0.0000 </r>
       <r>   13.0998    0.0000 </r>
       <r>   13.4223    0.0000 </r>
       <r>   13.4223    0.0000 </r>
       <r>   14.0767    0.0000 </r>
       <r>   14.0767    0.0000 </r>
       <r>   14.2083    0.0000 </r>
       <r>   14.2084    0.0000 </r>
       <r>   14.7763    0.0000 </r>
       <r>   14.7763    0.0000 </r>
       <r>   15.1313    0.0000 </r>
       <r>   15.1313    0.0000 </r>
       <r>   15.5789    0.0000 </r>
       <r>   15.5789    0.0000 </r>
       <r>   16.2058    0.0000 </r>
       <r>   16.2059    0.0000 </r>
       <r>   16.6991    0.0000 </r>
       <r>   16.6991    0.0000 </r>
       <r>   17.0738    0.0000 </r>
       <r>   17.0738    0.0000 </r>
       <r>   17.8702    0.0000 </r>
       <r>   17.8702    0.0000 </r>
       <r>   18.1007    0.0000 </r>
       <r>   18.1008    0.0000 </r>
       <r>   18.2731    0.0000 </r>
       <r>   18.2731    0.0000 </r>
       <r>   18.6339    0.0000 </r>
       <r>   18.6341    0.0000 </r>
       <r>   18.8483    0.0000 </r>
       <r>   18.8485    0.0000 </r>
       <r>   19.7451    0.0000 </r>
       <r>   19.7818    0.0000 </r>
      </set>
      <set comment="kpoint 11">
       <r>   -7.3567    1.0000 </r>
       <r>   -7.3567    1.0000 </r>
       <r>   -7.0949    1.0000 </r>
       <r>   -7.0949    1.0000 </r>
       <r>   -5.2580    1.0000 </r>
       <r>   -5.2580    1.0000 </r>
       <r>   -4.0819    1.0000 </r>
       <r>   -4.0819    1.0000 </r>
       <r>   -2.5896    1.0000 </r>
       <r>   -2.5896    1.0000 </r>
       <r>    2.2142    1.0000 </r>
       <r>    2.2142    1.0000 </r>
       <r>    2.5004    1.0000 </r>
       <r>    2.5004    1.0000 </r>
       <r>    2.9495    1.0000 </r>
       <r>    2.9495    1.0000 </r>
       <r>    3.5151    1.0000 </r>
       <r>    3.5151    1.0000 </r>
       <r>    3.6538    1.0000 </r>
       <r>    3.6538    1.0000 </r>
       <r>    3.9206    1.0000 </r>
       <r>    3.9206    1.0000 </r>
       <r>    4.5376    1.0000 </r>
       <r>    4.5377    1.0000 </r>
       <r>    4.6583    1.0000 </r>
       <r>    4.6583    1.0000 </r>
       <r>    5.3311    1.0000 </r>
       <r>    5.3311    1.0000 </r>
       <r>    5.5819    0.0000 </r>
       <r>    5.5819    0.0000 </r>
       <r>    6.5807    0.0000 </r>
       <r>    6.5807    0.0000 </r>
       <r>    6.8214    0.0000 </r>
       <r>    6.8214    0.0000 </r>
       <r>    7.5027    0.0000 </r>
       <r>    7.5027    0.0000 </r>
       <r>    8.2353    0.0000 </r>
       <r>    8.2353    0.0000 </r>
       <r>    8.4518    0.0000 </r>
       <r>    8.4518    0.0000 </r>
       <r>   10.3190    0.0000 </r>
       <r>   10.3191    0.0000 </r>
       <r>   10.6274    0.0000 </r>
       <r>   10.6274    0.0000 </r>
       <r>   10.9580    0.0000 </r>
       <r>   10.9580    0.0000 </r>
       <r>   11.3851    0.0000 </r>
       <r>   11.3851    0.0000 </r>
       <r>   11.8513    0.0000 </r>
       <r>   11.8514    0.0000 </r>
       <r>   12.5598    0.0000 </r>
       <r>   12.5599    0.0000 </r>
       <r>   12.6906    0.0000 </r>
       <r>   12.6906    0.0000 </r>
       <r>   12.9510    0.0000 </r>
       <r>   12.9510    0.0000 </r>
       <r>   13.1206    0.0000 </r>
       <r>   13.1206    0.0000 </r>
       <r>   13.3388    0.0000 </r>
       <r>   13.3388    0.0000 </r>
       <r>   13.9117    0.0000 </r>
       <r>   13.9118    0.0000 </r>
       <r>   14.1081    0.0000 </r>
       <r>   14.1082    0.0000 </r>
       <r>   14.6558    0.0000 </r>
       <r>   14.6559    0.0000 </r>
       <r>   15.0657    0.0000 </r>
       <r>   15.0657    0.0000 </r>
       <r>   15.4612    0.0000 </r>
       <r>   15.4612    0.0000 </r>
       <r>   16.0275    0.0000 </r>
       <r>   16.0275    0.0000 </r>
       <r>   16.7462    0.0000 </r>
       <r>   16.7462    0.0000 </r>
       <r>   17.0301    0.0000 </r>
       <r>   17.0301    0.0000 </r>
       <r>   17.8152    0.0000 </r>
       <r>   17.8152    0.0000 </r>
       <r>   18.1183    0.0000 </r>
       <r>   18.1183    0.0000 </r>
       <r>   18.2807    0.0000 </r>
       <r>   18.2807    0.0000 </r>
       <r>   18.7237    0.0000 </r>
       <r>   18.7243    0.0000 </r>
       <r>   18.9197    0.0000 </r>
       <r>   18.9201    0.0000 </r>
       <r>   19.6754    0.0000 </r>
       <r>   19.7082    0.0000 </r>
      </set>
      <set comment="kpoint 12">
       <r>   -7.4019    1.0000 </r>
       <r>   -7.4019    1.0000 </r>
       <r>   -7.1424    1.0000 </r>
       <r>   -7.1424    1.0000 </r>
       <r>   -5.2744    1.0000 </r>
       <r>   -5.2744    1.0000 </r>
       <r>   -4.0806    1.0000 </r>
       <r>   -4.0806    1.0000 </r>
       <r>   -2.4929    1.0000 </r>
       <r>   -2.4929    1.0000 </r>
       <r>    2.4376    1.0000 </r>
       <r>    2.4376    1.0000 </r>
       <r>    2.4935    1.0000 </r>
       <r>    2.4935    1.0000 </r>
       <r>    3.1095    1.0000 </r>
       <r>    3.1095    1.0000 </r>
       <r>    3.5590    1.0000 </r>
       <r>    3.5590    1.0000 </r>
       <r>    3.7724    1.0000 </r>
       <r>    3.7724    1.0000 </r>
       <r>    3.9631    1.0000 </r>
       <r>    3.9631    1.0000 </r>
       <r>    4.5800    1.0000 </r>
       <r>    4.5800    1.0000 </r>
       <r>    4.7885    1.0000 </r>
       <r>    4.7885    1.0000 </r>
       <r>    5.3438    1.0000 </r>
       <r>    5.3438    1.0000 </r>
       <r>    5.5311    0.0000 </r>
       <r>    5.5311    0.0000 </r>
       <r>    6.3730    0.0000 </r>
       <r>    6.3730    0.0000 </r>
       <r>    6.7680    0.0000 </r>
       <r>    6.7680    0.0000 </r>
       <r>    7.3616    0.0000 </r>
       <r>    7.3616    0.0000 </r>
       <r>    8.1254    0.0000 </r>
       <r>    8.1254    0.0000 </r>
       <r>    8.3297    0.0000 </r>
       <r>    8.3297    0.0000 </r>
       <r>   10.4161    0.0000 </r>
       <r>   10.4161    0.0000 </r>
       <r>   10.6046    0.0000 </r>
       <r>   10.6046    0.0000 </r>
       <r>   11.0698    0.0000 </r>
       <r>   11.0698    0.0000 </r>
       <r>   11.2811    0.0000 </r>
       <r>   11.2811    0.0000 </r>
       <r>   11.9065    0.0000 </r>
       <r>   11.9065    0.0000 </r>
       <r>   12.6030    0.0000 </r>
       <r>   12.6030    0.0000 </r>
       <r>   12.7156    0.0000 </r>
       <r>   12.7156    0.0000 </r>
       <r>   12.9302    0.0000 </r>
       <r>   12.9302    0.0000 </r>
       <r>   13.1631    0.0000 </r>
       <r>   13.1631    0.0000 </r>
       <r>   13.2294    0.0000 </r>
       <r>   13.2294    0.0000 </r>
       <r>   13.6102    0.0000 </r>
       <r>   13.6103    0.0000 </r>
       <r>   13.9177    0.0000 </r>
       <r>   13.9177    0.0000 </r>
       <r>   14.3952    0.0000 </r>
       <r>   14.3952    0.0000 </r>
       <r>   14.8796    0.0000 </r>
       <r>   14.8796    0.0000 </r>
       <r>   15.2213    0.0000 </r>
       <r>   15.2213    0.0000 </r>
       <r>   15.6617    0.0000 </r>
       <r>   15.6618    0.0000 </r>
       <r>   16.8854    0.0000 </r>
       <r>   16.8854    0.0000 </r>
       <r>   16.9980    0.0000 </r>
       <r>   16.9981    0.0000 </r>
       <r>   17.6740    0.0000 </r>
       <r>   17.6741    0.0000 </r>
       <r>   18.1670    0.0000 </r>
       <r>   18.1670    0.0000 </r>
       <r>   18.3498    0.0000 </r>
       <r>   18.3498    0.0000 </r>
       <r>   18.8921    0.0000 </r>
       <r>   18.8925    0.0000 </r>
       <r>   19.0918    0.0000 </r>
       <r>   19.0947    0.0000 </r>
       <r>   19.5520    0.0000 </r>
       <r>   19.5773    0.0000 </r>
      </set>
      <set comment="kpoint 13">
       <r>   -7.4215    1.0000 </r>
       <r>   -7.4215    1.0000 </r>
       <r>   -7.1629    1.0000 </r>
       <r>   -7.1629    1.0000 </r>
       <r>   -5.2819    1.0000 </r>
       <r>   -5.2819    1.0000 </r>
       <r>   -4.0803    1.0000 </r>
       <r>   -4.0803    1.0000 </r>
       <r>   -2.4504    1.0000 </r>
       <r>   -2.4504    1.0000 </r>
       <r>    2.4703    1.0000 </r>
       <r>    2.4703    1.0000 </r>
       <r>    2.5699    1.0000 </r>
       <r>    2.5699    1.0000 </r>
       <r>    3.1884    1.0000 </r>
       <r>    3.1884    1.0000 </r>
       <r>    3.5694    1.0000 </r>
       <r>    3.5694    1.0000 </r>
       <r>    3.8426    1.0000 </r>
       <r>    3.8426    1.0000 </r>
       <r>    3.9805    1.0000 </r>
       <r>    3.9805    1.0000 </r>
       <r>    4.5765    1.0000 </r>
       <r>    4.5765    1.0000 </r>
       <r>    4.8479    1.0000 </r>
       <r>    4.8479    1.0000 </r>
       <r>    5.3305    1.0000 </r>
       <r>    5.3305    1.0000 </r>
       <r>    5.5345    0.0000 </r>
       <r>    5.5345    0.0000 </r>
       <r>    6.2683    0.0000 </r>
       <r>    6.2683    0.0000 </r>
       <r>    6.7601    0.0000 </r>
       <r>    6.7601    0.0000 </r>
       <r>    7.2981    0.0000 </r>
       <r>    7.2981    0.0000 </r>
       <r>    8.0685    0.0000 </r>
       <r>    8.0685    0.0000 </r>
       <r>    8.2573    0.0000 </r>
       <r>    8.2574    0.0000 </r>
       <r>   10.4324    0.0000 </r>
       <r>   10.4324    0.0000 </r>
       <r>   10.6237    0.0000 </r>
       <r>   10.6237    0.0000 </r>
       <r>   11.1292    0.0000 </r>
       <r>   11.1293    0.0000 </r>
       <r>   11.2357    0.0000 </r>
       <r>   11.2357    0.0000 </r>
       <r>   11.9344    0.0000 </r>
       <r>   11.9345    0.0000 </r>
       <r>   12.6434    0.0000 </r>
       <r>   12.6435    0.0000 </r>
       <r>   12.7356    0.0000 </r>
       <r>   12.7356    0.0000 </r>
       <r>   12.9227    0.0000 </r>
       <r>   12.9227    0.0000 </r>
       <r>   13.1457    0.0000 </r>
       <r>   13.1457    0.0000 </r>
       <r>   13.2545    0.0000 </r>
       <r>   13.2545    0.0000 </r>
       <r>   13.4796    0.0000 </r>
       <r>   13.4797    0.0000 </r>
       <r>   13.8283    0.0000 </r>
       <r>   13.8283    0.0000 </r>
       <r>   14.2606    0.0000 </r>
       <r>   14.2607    0.0000 </r>
       <r>   14.7702    0.0000 </r>
       <r>   14.7702    0.0000 </r>
       <r>   15.0971    0.0000 </r>
       <r>   15.0971    0.0000 </r>
       <r>   15.4785    0.0000 </r>
       <r>   15.4785    0.0000 </r>
       <r>   16.8846    0.0000 </r>
       <r>   16.8847    0.0000 </r>
       <r>   17.0808    0.0000 </r>
       <r>   17.0808    0.0000 </r>
       <r>   17.6138    0.0000 </r>
       <r>   17.6138    0.0000 </r>
       <r>   18.1986    0.0000 </r>
       <r>   18.1986    0.0000 </r>
       <r>   18.3940    0.0000 </r>
       <r>   18.3941    0.0000 </r>
       <r>   18.9632    0.0000 </r>
       <r>   18.9645    0.0000 </r>
       <r>   19.1825    0.0000 </r>
       <r>   19.1954    0.0000 </r>
       <r>   19.5015    0.0000 </r>
       <r>   19.5178    0.0000 </r>
      </set>
      <set comment="kpoint 14">
       <r>   -7.4015    1.0000 </r>
       <r>   -7.4015    1.0000 </r>
       <r>   -7.0908    1.0000 </r>
       <r>   -7.0908    1.0000 </r>
       <r>   -5.3083    1.0000 </r>
       <r>   -5.3083    1.0000 </r>
       <r>   -4.0270    1.0000 </r>
       <r>   -4.0270    1.0000 </r>
       <r>   -2.5630    1.0000 </r>
       <r>   -2.5630    1.0000 </r>
       <r>    2.3604    1.0000 </r>
       <r>    2.3604    1.0000 </r>
       <r>    2.5010    1.0000 </r>
       <r>    2.5010    1.0000 </r>
       <r>    2.9670    1.0000 </r>
       <r>    2.9670    1.0000 </r>
       <r>    3.5537    1.0000 </r>
       <r>    3.5537    1.0000 </r>
       <r>    3.7391    1.0000 </r>
       <r>    3.7391    1.0000 </r>
       <r>    3.9650    1.0000 </r>
       <r>    3.9651    1.0000 </r>
       <r>    4.5221    1.0000 </r>
       <r>    4.5221    1.0000 </r>
       <r>    4.8055    1.0000 </r>
       <r>    4.8055    1.0000 </r>
       <r>    5.1931    1.0000 </r>
       <r>    5.1931    1.0000 </r>
       <r>    5.6966    0.0000 </r>
       <r>    5.6966    0.0000 </r>
       <r>    6.3847    0.0000 </r>
       <r>    6.3847    0.0000 </r>
       <r>    6.8063    0.0000 </r>
       <r>    6.8063    0.0000 </r>
       <r>    7.4260    0.0000 </r>
       <r>    7.4260    0.0000 </r>
       <r>    8.1948    0.0000 </r>
       <r>    8.1948    0.0000 </r>
       <r>    8.4024    0.0000 </r>
       <r>    8.4024    0.0000 </r>
       <r>   10.4440    0.0000 </r>
       <r>   10.4440    0.0000 </r>
       <r>   10.5223    0.0000 </r>
       <r>   10.5223    0.0000 </r>
       <r>   10.9935    0.0000 </r>
       <r>   10.9935    0.0000 </r>
       <r>   11.3176    0.0000 </r>
       <r>   11.3176    0.0000 </r>
       <r>   11.9911    0.0000 </r>
       <r>   11.9911    0.0000 </r>
       <r>   12.4857    0.0000 </r>
       <r>   12.4858    0.0000 </r>
       <r>   12.9047    0.0000 </r>
       <r>   12.9047    0.0000 </r>
       <r>   12.9676    0.0000 </r>
       <r>   12.9676    0.0000 </r>
       <r>   13.0279    0.0000 </r>
       <r>   13.0280    0.0000 </r>
       <r>   13.1382    0.0000 </r>
       <r>   13.1383    0.0000 </r>
       <r>   13.7466    0.0000 </r>
       <r>   13.7467    0.0000 </r>
       <r>   13.8416    0.0000 </r>
       <r>   13.8416    0.0000 </r>
       <r>   14.7179    0.0000 </r>
       <r>   14.7179    0.0000 </r>
       <r>   15.0534    0.0000 </r>
       <r>   15.0535    0.0000 </r>
       <r>   15.5286    0.0000 </r>
       <r>   15.5287    0.0000 </r>
       <r>   15.6708    0.0000 </r>
       <r>   15.6709    0.0000 </r>
       <r>   16.6275    0.0000 </r>
       <r>   16.6276    0.0000 </r>
       <r>   16.7401    0.0000 </r>
       <r>   16.7401    0.0000 </r>
       <r>   18.0348    0.0000 </r>
       <r>   18.0348    0.0000 </r>
       <r>   18.3082    0.0000 </r>
       <r>   18.3082    0.0000 </r>
       <r>   18.3707    0.0000 </r>
       <r>   18.3708    0.0000 </r>
       <r>   18.8308    0.0000 </r>
       <r>   18.8311    0.0000 </r>
       <r>   19.1335    0.0000 </r>
       <r>   19.1379    0.0000 </r>
       <r>   19.3847    0.0000 </r>
       <r>   19.3970    0.0000 </r>
      </set>
      <set comment="kpoint 15">
       <r>   -7.3873    1.0000 </r>
       <r>   -7.3873    1.0000 </r>
       <r>   -7.1057    1.0000 </r>
       <r>   -7.1057    1.0000 </r>
       <r>   -5.2827    1.0000 </r>
       <r>   -5.2827    1.0000 </r>
       <r>   -4.0593    1.0000 </r>
       <r>   -4.0593    1.0000 </r>
       <r>   -2.5529    1.0000 </r>
       <r>   -2.5529    1.0000 </r>
       <r>    2.3382    1.0000 </r>
       <r>    2.3382    1.0000 </r>
       <r>    2.4974    1.0000 </r>
       <r>    2.4974    1.0000 </r>
       <r>    2.9680    1.0000 </r>
       <r>    2.9680    1.0000 </r>
       <r>    3.5533    1.0000 </r>
       <r>    3.5533    1.0000 </r>
       <r>    3.7493    1.0000 </r>
       <r>    3.7493    1.0000 </r>
       <r>    3.9527    1.0000 </r>
       <r>    3.9527    1.0000 </r>
       <r>    4.5300    1.0000 </r>
       <r>    4.5300    1.0000 </r>
       <r>    4.7545    1.0000 </r>
       <r>    4.7545    1.0000 </r>
       <r>    5.1953    1.0000 </r>
       <r>    5.1953    1.0000 </r>
       <r>    5.7025    0.0000 </r>
       <r>    5.7025    0.0000 </r>
       <r>    6.4304    0.0000 </r>
       <r>    6.4305    0.0000 </r>
       <r>    6.8134    0.0000 </r>
       <r>    6.8134    0.0000 </r>
       <r>    7.4208    0.0000 </r>
       <r>    7.4208    0.0000 </r>
       <r>    8.1943    0.0000 </r>
       <r>    8.1943    0.0000 </r>
       <r>    8.4043    0.0000 </r>
       <r>    8.4043    0.0000 </r>
       <r>   10.4220    0.0000 </r>
       <r>   10.4220    0.0000 </r>
       <r>   10.5489    0.0000 </r>
       <r>   10.5490    0.0000 </r>
       <r>   10.9959    0.0000 </r>
       <r>   10.9959    0.0000 </r>
       <r>   11.3352    0.0000 </r>
       <r>   11.3352    0.0000 </r>
       <r>   11.8994    0.0000 </r>
       <r>   11.8995    0.0000 </r>
       <r>   12.5276    0.0000 </r>
       <r>   12.5276    0.0000 </r>
       <r>   12.8659    0.0000 </r>
       <r>   12.8659    0.0000 </r>
       <r>   12.9508    0.0000 </r>
       <r>   12.9509    0.0000 </r>
       <r>   13.0425    0.0000 </r>
       <r>   13.0425    0.0000 </r>
       <r>   13.2265    0.0000 </r>
       <r>   13.2265    0.0000 </r>
       <r>   13.7658    0.0000 </r>
       <r>   13.7659    0.0000 </r>
       <r>   13.9368    0.0000 </r>
       <r>   13.9369    0.0000 </r>
       <r>   14.6160    0.0000 </r>
       <r>   14.6160    0.0000 </r>
       <r>   14.9671    0.0000 </r>
       <r>   14.9671    0.0000 </r>
       <r>   15.5731    0.0000 </r>
       <r>   15.5731    0.0000 </r>
       <r>   15.6996    0.0000 </r>
       <r>   15.6996    0.0000 </r>
       <r>   16.7487    0.0000 </r>
       <r>   16.7487    0.0000 </r>
       <r>   16.8508    0.0000 </r>
       <r>   16.8508    0.0000 </r>
       <r>   17.8801    0.0000 </r>
       <r>   17.8801    0.0000 </r>
       <r>   18.1803    0.0000 </r>
       <r>   18.1804    0.0000 </r>
       <r>   18.4550    0.0000 </r>
       <r>   18.4550    0.0000 </r>
       <r>   18.7313    0.0000 </r>
       <r>   18.7317    0.0000 </r>
       <r>   19.2138    0.0000 </r>
       <r>   19.2176    0.0000 </r>
       <r>   19.3046    0.0000 </r>
       <r>   19.3078    0.0000 </r>
      </set>
      <set comment="kpoint 16">
       <r>   -7.3685    1.0000 </r>
       <r>   -7.3685    1.0000 </r>
       <r>   -7.1192    1.0000 </r>
       <r>   -7.1192    1.0000 </r>
       <r>   -5.2542    1.0000 </r>
       <r>   -5.2542    1.0000 </r>
       <r>   -4.0945    1.0000 </r>
       <r>   -4.0945    1.0000 </r>
       <r>   -2.5473    1.0000 </r>
       <r>   -2.5473    1.0000 </r>
       <r>    2.2937    1.0000 </r>
       <r>    2.2937    1.0000 </r>
       <r>    2.4839    1.0000 </r>
       <r>    2.4839    1.0000 </r>
       <r>    2.9790    1.0000 </r>
       <r>    2.9790    1.0000 </r>
       <r>    3.5463    1.0000 </r>
       <r>    3.5463    1.0000 </r>
       <r>    3.7660    1.0000 </r>
       <r>    3.7660    1.0000 </r>
       <r>    3.9552    1.0000 </r>
       <r>    3.9552    1.0000 </r>
       <r>    4.5187    1.0000 </r>
       <r>    4.5187    1.0000 </r>
       <r>    4.6567    1.0000 </r>
       <r>    4.6567    1.0000 </r>
       <r>    5.2041    1.0000 </r>
       <r>    5.2041    1.0000 </r>
       <r>    5.7192    0.0000 </r>
       <r>    5.7192    0.0000 </r>
       <r>    6.5196    0.0000 </r>
       <r>    6.5196    0.0000 </r>
       <r>    6.8414    0.0000 </r>
       <r>    6.8414    0.0000 </r>
       <r>    7.4150    0.0000 </r>
       <r>    7.4150    0.0000 </r>
       <r>    8.1776    0.0000 </r>
       <r>    8.1776    0.0000 </r>
       <r>    8.3935    0.0000 </r>
       <r>    8.3935    0.0000 </r>
       <r>   10.3398    0.0000 </r>
       <r>   10.3398    0.0000 </r>
       <r>   10.6223    0.0000 </r>
       <r>   10.6223    0.0000 </r>
       <r>   11.0315    0.0000 </r>
       <r>   11.0315    0.0000 </r>
       <r>   11.3841    0.0000 </r>
       <r>   11.3842    0.0000 </r>
       <r>   11.7293    0.0000 </r>
       <r>   11.7294    0.0000 </r>
       <r>   12.5796    0.0000 </r>
       <r>   12.5796    0.0000 </r>
       <r>   12.6769    0.0000 </r>
       <r>   12.6770    0.0000 </r>
       <r>   12.9551    0.0000 </r>
       <r>   12.9552    0.0000 </r>
       <r>   13.2455    0.0000 </r>
       <r>   13.2455    0.0000 </r>
       <r>   13.4357    0.0000 </r>
       <r>   13.4357    0.0000 </r>
       <r>   13.7728    0.0000 </r>
       <r>   13.7729    0.0000 </r>
       <r>   14.1659    0.0000 </r>
       <r>   14.1660    0.0000 </r>
       <r>   14.4208    0.0000 </r>
       <r>   14.4208    0.0000 </r>
       <r>   14.7604    0.0000 </r>
       <r>   14.7604    0.0000 </r>
       <r>   15.3908    0.0000 </r>
       <r>   15.3908    0.0000 </r>
       <r>   15.9903    0.0000 </r>
       <r>   15.9904    0.0000 </r>
       <r>   16.9370    0.0000 </r>
       <r>   16.9370    0.0000 </r>
       <r>   17.1525    0.0000 </r>
       <r>   17.1526    0.0000 </r>
       <r>   17.5667    0.0000 </r>
       <r>   17.5667    0.0000 </r>
       <r>   17.8516    0.0000 </r>
       <r>   17.8516    0.0000 </r>
       <r>   18.2720    0.0000 </r>
       <r>   18.2721    0.0000 </r>
       <r>   18.8408    0.0000 </r>
       <r>   18.8410    0.0000 </r>
       <r>   18.9503    0.0000 </r>
       <r>   18.9508    0.0000 </r>
       <r>   19.6608    0.0000 </r>
[...]
       <r>    13.0539     0.0000     0.0000 </r>
       <r>    13.1552     0.0000     0.0000 </r>
       <r>    13.2565     0.0000     0.0000 </r>
       <r>    13.3578     0.0000     0.0000 </r>
       <r>    13.4591     0.0000     0.0000 </r>
       <r>    13.5604     0.0000     0.0000 </r>
       <r>    13.6617     0.0000     0.0000 </r>
       <r>    13.7630     0.0000     0.0000 </r>
       <r>    13.8643     0.0000     0.0000 </r>
       <r>    13.9656     0.0000     0.0000 </r>
       <r>    14.0669     0.0000     0.0000 </r>
       <r>    14.1682     0.0000     0.0000 </r>
       <r>    14.2695     0.0000     0.0000 </r>
       <r>    14.3708     0.0000     0.0000 </r>
       <r>    14.4721     0.0000     0.0000 </r>
       <r>    14.5734     0.0000     0.0000 </r>
       <r>    14.6747     0.0000     0.0000 </r>
       <r>    14.7760     0.0000     0.0000 </r>
       <r>    14.8773     0.0000     0.0000 </r>
       <r>    14.9786     0.0000     0.0000 </r>
       <r>    15.0799     0.0000     0.0000 </r>
       <r>    15.1811     0.0000     0.0000 </r>
       <r>    15.2824     0.0000     0.0000 </r>
       <r>    15.3837     0.0000     0.0000 </r>
       <r>    15.4850     0.0000     0.0000 </r>
       <r>    15.5863     0.0000     0.0000 </r>
       <r>    15.6876     0.0000     0.0000 </r>
       <r>    15.7889     0.0000     0.0000 </r>
       <r>    15.8902     0.0000     0.0000 </r>
       <r>    15.9915     0.0000     0.0000 </r>
       <r>    16.0928     0.0000     0.0000 </r>
       <r>    16.1941     0.0000     0.0000 </r>
       <r>    16.2954     0.0000     0.0000 </r>
       <r>    16.3967     0.0000     0.0000 </r>
       <r>    16.4980     0.0000     0.0000 </r>
       <r>    16.5993     0.0000     0.0000 </r>
       <r>    16.7006     0.0000     0.0000 </r>
       <r>    16.8019     0.0000     0.0000 </r>
       <r>    16.9032     0.0000     0.0000 </r>
       <r>    17.0045     0.0000     0.0000 </r>
       <r>    17.1058     0.0000     0.0000 </r>
       <r>    17.2071     0.0000     0.0000 </r>
       <r>    17.3083     0.0000     0.0000 </r>
       <r>    17.4096     0.0000     0.0000 </r>
       <r>    17.5109     0.0000     0.0000 </r>
       <r>    17.6122     0.0000     0.0000 </r>
       <r>    17.7135     0.0000     0.0000 </r>
       <r>    17.8148     0.0000     0.0000 </r>
       <r>    17.9161     0.0000     0.0000 </r>
       <r>    18.0174     0.0000     0.0000 </r>
       <r>    18.1187     0.0000     0.0000 </r>
       <r>    18.2200     0.0000     0.0000 </r>
       <r>    18.3213     0.0000     0.0000 </r>
       <r>    18.4226     0.0000     0.0000 </r>
       <r>    18.5239     0.0000     0.0000 </r>
       <r>    18.6252     0.0000     0.0000 </r>
       <r>    18.7265     0.0000     0.0000 </r>
       <r>    18.8278     0.0000     0.0000 </r>
       <r>    18.9291     0.0000     0.0000 </r>
       <r>    19.0304     0.0000     0.0000 </r>
       <r>    19.1317     0.0000     0.0000 </r>
       <r>    19.2330     0.0000     0.0000 </r>
       <r>    19.3343     0.0000     0.0000 </r>
       <r>    19.4355     0.0000     0.0000 </r>
       <r>    19.5368     0.0000     0.0000 </r>
       <r>    19.6381     0.0000     0.0000 </r>
       <r>    19.7394     0.0000     0.0000 </r>
       <r>    19.8407     0.0000     0.0000 </r>
       <r>    19.9420     0.0000     0.0000 </r>
       <r>    20.0433     0.0000     0.0000 </r>
       <r>    20.1446     0.0000     0.0000 </r>
       <r>    20.2459     0.0000     0.0000 </r>
       <r>    20.3472     0.0000     0.0000 </r>
       <r>    20.4485     0.0000     0.0000 </r>
       <r>    20.5498     0.0000     0.0000 </r>
       <r>    20.6511     0.0000     0.0000 </r>
       <r>    20.7524     0.0000     0.0000 </r>
       <r>    20.8537     0.0000     0.0000 </r>
       <r>    20.9550     0.0000     0.0000 </r>
       <r>    21.0563     0.0000     0.0000 </r>
       <r>    21.1576     0.0000     0.0000 </r>
       <r>    21.2589     0.0000     0.0000 </r>
       <r>    21.3602     0.0000     0.0000 </r>
       <r>    21.4615     0.0000     0.0000 </r>
       <r>    21.5627     0.0000     0.0000 </r>
      </set>
      <set comment="spin 4">
       <r>    -8.8258     0.0000     0.0000 </r>
       <r>    -8.7245     0.0000     0.0000 </r>
       <r>    -8.6232     0.0000     0.0000 </r>
       <r>    -8.5219     0.0000     0.0000 </r>
       <r>    -8.4206     0.0000     0.0000 </r>
       <r>    -8.3193     0.0000     0.0000 </r>
       <r>    -8.2181     0.0000     0.0000 </r>
       <r>    -8.1168     0.0000     0.0000 </r>
       <r>    -8.0155     0.0000     0.0000 </r>
       <r>    -7.9142     0.0000     0.0000 </r>
       <r>    -7.8129     0.0000     0.0000 </r>
       <r>    -7.7116     0.0000     0.0000 </r>
       <r>    -7.6103     0.0000     0.0000 </r>
       <r>    -7.5090     0.0000     0.0000 </r>
       <r>    -7.4077     0.0000     0.0000 </r>
       <r>    -7.3064     0.0000     0.0000 </r>
       <r>    -7.2051     0.0000     0.0000 </r>
       <r>    -7.1038     0.0000     0.0000 </r>
       <r>    -7.0025     0.0000     0.0000 </r>
       <r>    -6.9012     0.0000     0.0000 </r>
       <r>    -6.7999     0.0000     0.0000 </r>
       <r>    -6.6986     0.0000     0.0000 </r>
       <r>    -6.5973     0.0000     0.0000 </r>
       <r>    -6.4960     0.0000     0.0000 </r>
       <r>    -6.3947     0.0000     0.0000 </r>
       <r>    -6.2934     0.0000     0.0000 </r>
       <r>    -6.1921     0.0000     0.0000 </r>
       <r>    -6.0909     0.0000     0.0000 </r>
       <r>    -5.9896     0.0000     0.0000 </r>
       <r>    -5.8883     0.0000     0.0000 </r>
       <r>    -5.7870     0.0000     0.0000 </r>
       <r>    -5.6857     0.0000     0.0000 </r>
       <r>    -5.5844     0.0000     0.0000 </r>
       <r>    -5.4831     0.0000     0.0000 </r>
       <r>    -5.3818     0.0000     0.0000 </r>
       <r>    -5.2805     0.0000     0.0000 </r>
       <r>    -5.1792     0.0000     0.0000 </r>
       <r>    -5.0779     0.0000     0.0000 </r>
       <r>    -4.9766     0.0000     0.0000 </r>
       <r>    -4.8753     0.0000     0.0000 </r>
       <r>    -4.7740     0.0000     0.0000 </r>
       <r>    -4.6727     0.0000     0.0000 </r>
       <r>    -4.5714     0.0000     0.0000 </r>
       <r>    -4.4701     0.0000     0.0000 </r>
       <r>    -4.3688     0.0000     0.0000 </r>
       <r>    -4.2675     0.0000     0.0000 </r>
       <r>    -4.1662     0.0000     0.0000 </r>
       <r>    -4.0649     0.0000     0.0000 </r>
       <r>    -3.9637     0.0000     0.0000 </r>
       <r>    -3.8624     0.0000     0.0000 </r>
       <r>    -3.7611     0.0000     0.0000 </r>
       <r>    -3.6598     0.0000     0.0000 </r>
       <r>    -3.5585     0.0000     0.0000 </r>
       <r>    -3.4572     0.0000     0.0000 </r>
       <r>    -3.3559     0.0000     0.0000 </r>
       <r>    -3.2546     0.0000     0.0000 </r>
       <r>    -3.1533     0.0000     0.0000 </r>
       <r>    -3.0520     0.0000     0.0000 </r>
       <r>    -2.9507     0.0000     0.0000 </r>
       <r>    -2.8494     0.0000     0.0000 </r>
       <r>    -2.7481     0.0000     0.0000 </r>
       <r>    -2.6468     0.0000     0.0000 </r>
       <r>    -2.5455     0.0000     0.0000 </r>
       <r>    -2.4442     0.0000     0.0000 </r>
       <r>    -2.3429     0.0000     0.0000 </r>
       <r>    -2.2416     0.0000     0.0000 </r>
       <r>    -2.1403     0.0000     0.0000 </r>
       <r>    -2.0390     0.0000     0.0000 </r>
       <r>    -1.9377     0.0000     0.0000 </r>
       <r>    -1.8365     0.0000     0.0000 </r>
       <r>    -1.7352     0.0000     0.0000 </r>
       <r>    -1.6339     0.0000     0.0000 </r>
       <r>    -1.5326     0.0000     0.0000 </r>
       <r>    -1.4313     0.0000     0.0000 </r>
       <r>    -1.3300     0.0000     0.0000 </r>
       <r>    -1.2287     0.0000     0.0000 </r>
       <r>    -1.1274     0.0000     0.0000 </r>
       <r>    -1.0261     0.0000     0.0000 </r>
       <r>    -0.9248     0.0000     0.0000 </r>
       <r>    -0.8235     0.0000     0.0000 </r>
       <r>    -0.7222     0.0000     0.0000 </r>
       <r>    -0.6209     0.0000     0.0000 </r>
       <r>    -0.5196     0.0000     0.0000 </r>
       <r>    -0.4183     0.0000     0.0000 </r>
       <r>    -0.3170     0.0000     0.0000 </r>
       <r>    -0.2157     0.0000     0.0000 </r>
       <r>    -0.1144     0.0000     0.0000 </r>
       <r>    -0.0131     0.0000     0.0000 </r>
       <r>     0.0882     0.0000     0.0000 </r>
       <r>     0.1895     0.0000     0.0000 </r>
       <r>     0.2907     0.0000     0.0000 </r>
       <r>     0.3920     0.0000     0.0000 </r>
       <r>     0.4933     0.0000     0.0000 </r>
       <r>     0.5946     0.0000     0.0000 </r>
       <r>     0.6959     0.0000     0.0000 </r>
       <r>     0.7972     0.0000     0.0000 </r>
       <r>     0.8985     0.0000     0.0000 </r>
       <r>     0.9998     0.0000     0.0000 </r>
       <r>     1.1011     0.0000     0.0000 </r>
       <r>     1.2024     0.0000     0.0000 </r>
       <r>     1.3037     0.0000     0.0000 </r>
       <r>     1.4050     0.0000     0.0000 </r>
       <r>     1.5063     0.0000     0.0000 </r>
       <r>     1.6076     0.0000     0.0000 </r>
       <r>     1.7089     0.0000     0.0000 </r>
       <r>     1.8102     0.0000     0.0000 </r>
       <r>     1.9115     0.0000     0.0000 </r>
       <r>     2.0128     0.0000     0.0000 </r>
       <r>     2.1141     0.0000     0.0000 </r>
       <r>     2.2154     0.0000     0.0000 </r>
       <r>     2.3167     0.0000     0.0000 </r>
       <r>     2.4179     0.0000     0.0000 </r>
       <r>     2.5192     0.0000     0.0000 </r>
       <r>     2.6205     0.0000     0.0000 </r>
       <r>     2.7218     0.0000     0.0000 </r>
       <r>     2.8231     0.0000     0.0000 </r>
       <r>     2.9244     0.0000     0.0000 </r>
       <r>     3.0257     0.0000     0.0000 </r>
       <r>     3.1270     0.0000     0.0000 </r>
       <r>     3.2283     0.0000     0.0000 </r>
       <r>     3.3296     0.0000     0.0000 </r>
       <r>     3.4309     0.0000     0.0000 </r>
       <r>     3.5322     0.0000     0.0000 </r>
       <r>     3.6335     0.0000     0.0000 </r>
       <r>     3.7348     0.0000     0.0000 </r>
       <r>     3.8361     0.0000     0.0000 </r>
       <r>     3.9374     0.0000     0.0000 </r>
       <r>     4.0387     0.0000     0.0000 </r>
       <r>     4.1400     0.0000     0.0000 </r>
       <r>     4.2413     0.0000     0.0000 </r>
       <r>     4.3426     0.0000     0.0000 </r>
       <r>     4.4439     0.0000     0.0000 </r>
       <r>     4.5451     0.0000     0.0000 </r>
       <r>     4.6464     0.0000     0.0000 </r>
       <r>     4.7477     0.0000     0.0000 </r>
       <r>     4.8490     0.0000     0.0000 </r>
       <r>     4.9503     0.0000     0.0000 </r>
       <r>     5.0516     0.0000     0.0000 </r>
       <r>     5.1529     0.0000     0.0000 </r>
       <r>     5.2542     0.0000     0.0000 </r>
       <r>     5.3555     0.0000     0.0000 </r>
       <r>     5.4568     0.0000     0.0000 </r>
       <r>     5.5581     0.0000     0.0000 </r>
       <r>     5.6594     0.0000     0.0000 </r>
       <r>     5.7607     0.0000     0.0000 </r>
       <r>     5.8620     0.0000     0.0000 </r>
       <r>     5.9633     0.0000     0.0000 </r>
       <r>     6.0646     0.0000     0.0000 </r>
       <r>     6.1659     0.0000     0.0000 </r>
       <r>     6.2672     0.0000     0.0000 </r>
       <r>     6.3685     0.0000     0.0000 </r>
       <r>     6.4698     0.0000     0.0000 </r>
       <r>     6.5711     0.0000     0.0000 </r>
       <r>     6.6723     0.0000     0.0000 </r>
       <r>     6.7736     0.0000     0.0000 </r>
       <r>     6.8749     0.0000     0.0000 </r>
       <r>     6.9762     0.0000     0.0000 </r>
       <r>     7.0775     0.0000     0.0000 </r>
       <r>     7.1788     0.0000     0.0000 </r>
       <r>     7.2801     0.0000     0.0000 </r>
       <r>     7.3814     0.0000     0.0000 </r>
       <r>     7.4827     0.0000     0.0000 </r>
       <r>     7.5840     0.0000     0.0000 </r>
       <r>     7.6853     0.0000     0.0000 </r>
       <r>     7.7866     0.0000     0.0000 </r>
       <r>     7.8879     0.0000     0.0000 </r>
       <r>     7.9892     0.0000     0.0000 </r>
       <r>     8.0905     0.0000     0.0000 </r>
       <r>     8.1918     0.0000     0.0000 </r>
       <r>     8.2931     0.0000     0.0000 </r>
       <r>     8.3944     0.0000     0.0000 </r>
       <r>     8.4957     0.0000     0.0000 </r>
       <r>     8.5970     0.0000     0.0000 </r>
       <r>     8.6983     0.0000     0.0000 </r>
       <r>     8.7995     0.0000     0.0000 </r>
       <r>     8.9008     0.0000     0.0000 </r>
       <r>     9.0021     0.0000     0.0000 </r>
       <r>     9.1034     0.0000     0.0000 </r>
       <r>     9.2047     0.0000     0.0000 </r>
       <r>     9.3060     0.0000     0.0000 </r>
       <r>     9.4073     0.0000     0.0000 </r>
       <r>     9.5086     0.0000     0.0000 </r>
       <r>     9.6099     0.0000     0.0000 </r>
       <r>     9.7112     0.0000     0.0000 </r>
       <r>     9.8125     0.0000     0.0000 </r>
       <r>     9.9138     0.0000     0.0000 </r>
       <r>    10.0151     0.0000     0.0000 </r>
       <r>    10.1164     0.0000     0.0000 </r>
       <r>    10.2177     0.0000     0.0000 </r>
       <r>    10.3190     0.0000     0.0000 </r>
       <r>    10.4203     0.0000     0.0000 </r>
       <r>    10.5216     0.0000     0.0000 </r>
       <r>    10.6229     0.0000     0.0000 </r>
       <r>    10.7242     0.0000     0.0000 </r>
       <r>    10.8255     0.0000     0.0000 </r>
       <r>    10.9267     0.0000     0.0000 </r>
       <r>    11.0280     0.0000     0.0000 </r>
       <r>    11.1293     0.0000     0.0000 </r>
       <r>    11.2306     0.0000     0.0000 </r>
       <r>    11.3319     0.0000     0.0000 </r>
       <r>    11.4332     0.0000     0.0000 </r>
       <r>    11.5345     0.0000     0.0000 </r>
       <r>    11.6358     0.0000     0.0000 </r>
       <r>    11.7371     0.0000     0.0000 </r>
       <r>    11.8384     0.0000     0.0000 </r>
       <r>    11.9397     0.0000     0.0000 </r>
       <r>    12.0410     0.0000     0.0000 </r>
       <r>    12.1423     0.0000     0.0000 </r>
       <r>    12.2436     0.0000     0.0000 </r>
       <r>    12.3449     0.0000     0.0000 </r>
       <r>    12.4462     0.0000     0.0000 </r>
       <r>    12.5475     0.0000     0.0000 </r>
       <r>    12.6488     0.0000     0.0000 </r>
       <r>    12.7501     0.0000     0.0000 </r>
       <r>    12.8514     0.0000     0.0000 </r>
       <r>    12.9527     0.0000     0.0000 </r>
       <r>    13.0539     0.0000     0.0000 </r>
       <r>    13.1552     0.0000     0.0000 </r>
       <r>    13.2565     0.0000     0.0000 </r>
       <r>    13.3578     0.0000     0.0000 </r>
       <r>    13.4591     0.0000     0.0000 </r>
       <r>    13.5604     0.0000     0.0000 </r>
       <r>    13.6617     0.0000     0.0000 </r>
       <r>    13.7630     0.0000     0.0000 </r>
       <r>    13.8643     0.0000     0.0000 </r>
       <r>    13.9656     0.0000     0.0000 </r>
       <r>    14.0669     0.0000     0.0000 </r>
       <r>    14.1682     0.0000     0.0000 </r>
       <r>    14.2695     0.0000     0.0000 </r>
       <r>    14.3708     0.0000     0.0000 </r>
       <r>    14.4721     0.0000     0.0000 </r>
       <r>    14.5734     0.0000     0.0000 </r>
       <r>    14.6747     0.0000     0.0000 </r>
       <r>    14.7760     0.0000     0.0000 </r>
       <r>    14.8773     0.0000     0.0000 </r>
       <r>    14.9786     0.0000     0.0000 </r>
       <r>    15.0799     0.0000     0.0000 </r>
       <r>    15.1811     0.0000     0.0000 </r>
       <r>    15.2824     0.0000     0.0000 </r>
       <r>    15.3837     0.0000     0.0000 </r>
       <r>    15.4850     0.0000     0.0000 </r>
       <r>    15.5863     0.0000     0.0000 </r>
       <r>    15.6876     0.0000     0.0000 </r>
       <r>    15.7889     0.0000     0.0000 </r>
       <r>    15.8902     0.0000     0.0000 </r>
       <r>    15.9915     0.0000     0.0000 </r>
       <r>    16.0928     0.0000     0.0000 </r>
       <r>    16.1941     0.0000     0.0000 </r>
       <r>    16.2954     0.0000     0.0000 </r>
       <r>    16.3967     0.0000     0.0000 </r>
       <r>    16.4980     0.0000     0.0000 </r>
       <r>    16.5993     0.0000     0.0000 </r>
       <r>    16.7006     0.0000     0.0000 </r>
       <r>    16.8019     0.0000     0.0000 </r>
       <r>    16.9032     0.0000     0.0000 </r>
       <r>    17.0045     0.0000     0.0000 </r>
       <r>    17.1058     0.0000     0.0000 </r>
       <r>    17.2071     0.0000     0.0000 </r>
       <r>    17.3083     0.0000     0.0000 </r>
       <r>    17.4096     0.0000     0.0000 </r>
       <r>    17.5109     0.0000     0.0000 </r>
       <r>    17.6122     0.0000     0.0000 </r>
       <r>    17.7135     0.0000     0.0000 </r>
       <r>    17.8148     0.0000     0.0000 </r>
       <r>    17.9161     0.0000     0.0000 </r>
       <r>    18.0174     0.0000     0.0000 </r>
       <r>    18.1187     0.0000     0.0000 </r>
       <r>    18.2200     0.0000     0.0000 </r>
       <r>    18.3213     0.0000     0.0000 </r>
       <r>    18.4226     0.0000     0.0000 </r>
       <r>    18.5239     0.0000     0.0000 </r>
       <r>    18.6252     0.0000     0.0000 </r>
       <r>    18.7265     0.0000     0.0000 </r>
       <r>    18.8278     0.0000     0.0000 </r>
       <r>    18.9291     0.0000     0.0000 </r>
       <r>    19.0304     0.0000     0.0000 </r>
       <r>    19.1317     0.0000     0.0000 </r>
       <r>    19.2330     0.0000     0.0000 </r>
       <r>    19.3343     0.0000     0.0000 </r>
       <r>    19.4355     0.0000     0.0000 </r>
       <r>    19.5368     0.0000     0.0000 </r>
       <r>    19.6381     0.0000     0.0000 </r>
       <r>    19.7394     0.0000     0.0000 </r>
       <r>    19.8407     0.0000     0.0000 </r>
       <r>    19.9420     0.0000     0.0000 </r>
       <r>    20.0433     0.0000     0.0000 </r>
       <r>    20.1446     0.0000     0.0000 </r>
       <r>    20.2459     0.0000     0.0000 </r>
       <r>    20.3472     0.0000     0.0000 </r>
       <r>    20.4485     0.0000     0.0000 </r>
       <r>    20.5498     0.0000     0.0000 </r>
       <r>    20.6511     0.0000     0.0000 </r>
       <r>    20.7524     0.0000     0.0000 </r>
       <r>    20.8537     0.0000     0.0000 </r>
       <r>    20.9550     0.0000     0.0000 </r>
       <r>    21.0563     0.0000     0.0000 </r>
       <r>    21.1576     0.0000     0.0000 </r>
       <r>    21.2589     0.0000     0.0000 </r>
       <r>    21.3602     0.0000     0.0000 </r>
       <r>    21.4615     0.0000     0.0000 </r>
       <r>    21.5627     0.0000     0.0000 </r>
      </set>
     </set>
    </array>
   </total>
  </dos>
 </calculation>
 <structure name="finalpos" >
  <crystal>
   <varray name="basis" >
    <v>      10.22228271      -2.21667734       0.00000000 </v>
    <v>      10.22228271       2.21667734       0.00000000 </v>
    <v>       9.74160157       0.00000000       3.80918902 </v>
   </varray>
   <i name="volume">    172.62865583 </i>
   <varray name="rec_basis" >
    <v>       0.04891275      -0.22556282      -0.12508924 </v>
    <v>       0.04891275       0.22556282      -0.12508924 </v>
    <v>      -0.00000000       0.00000000       0.26252307 </v>
   </varray>
  </crystal>
  <varray name="positions" >
   <v>       0.39979833       0.39979833       0.39979833 </v>
   <v>       0.60020167       0.60020167       0.60020167 </v>
   <v>       0.00000000       0.00000000       0.00000000 </v>
   <v>       0.21048582       0.21048582       0.21048582 </v>
   <v>       0.78951418       0.78951418       0.78951418 </v>
  </varray>
 </structure>
</modeling>
