    8    8    1    1
  0.2827999E+02  0.4207598E-09  0.4562868E-09  0.1178412E-08  0.5000000E-15
   1.0000000000000000E-004
  CAR 
 SnSe                                    
     80     61     60

  0.0000000E+00  0.4761905E-01  0.0000000E+00  0.1639344E-01
    1      -16.481629   1.000000
    2      -16.473766   1.000000
    3      -16.470153   1.000000
    4      -16.469088   1.000000
    5      -16.467307   1.000000
    6      -16.465947   1.000000
    7      -16.465545   1.000000
    8      -16.462389   1.000000
    9      -16.452046   1.000000
   10      -16.450724   1.000000
   11      -16.445037   1.000000
   12      -16.439448   1.000000
   13      -16.438389   1.000000
   14      -16.437093   1.000000
   15      -16.419621   1.000000
   16      -16.418594   1.000000
   17      -16.412070   1.000000
   18      -16.411923   1.000000
   19      -16.410823   1.000000
   20      -16.403965   1.000000
   21       -8.638713   1.000000
   22       -8.361645   1.000000
   23       -7.708808   1.000000
   24       -7.331927   1.000000
   25       -2.199618   1.000000
   26       -1.295258   1.000000
   27       -0.627784   1.000000
   28       -0.262908   1.000000
   29        0.218112   1.000000
   30        1.660199   1.000000
   31        1.762155   1.000000
   32        1.825837   1.000000
   33        2.101657   1.000000
   34        2.174012   1.000000
   35        2.781842   1.000000
   36        3.071711   1.000000
   37        3.341690   1.000000
   38        3.727927   1.000000
   39        4.138226   1.000000
   40        4.366749   1.000000
   41        5.616081   0.000000
   42        7.489411   0.000000
   43        7.778572   0.000000
   44        7.857486   0.000000
   45        8.027334   0.000000
   46        8.243062   0.000000
   47        8.723049   0.000000
   48        9.206437   0.000000
   49        9.357241   0.000000
   50        9.475538   0.000000
   51       10.063079   0.000000
   52       10.443358   0.000000
   53       10.743087   0.000000
   54       10.854793   0.000000
   55       11.123507   0.000000
   56       11.751726   0.000000
   57       11.782201   0.000000
   58       12.564612   0.000000
   59       13.196143   0.000000
   60       13.394518   0.000000

 -0.2530948E-01  0.4761905E-01  0.0000000E+00  0.1639344E-01
    1      -16.481517   1.000000
    2      -16.473712   1.000000
    3      -16.470052   1.000000
    4      -16.469147   1.000000
    5      -16.467233   1.000000
    6      -16.465999   1.000000
    7      -16.465615   1.000000
    8      -16.462445   1.000000
    9      -16.452008   1.000000
   10      -16.450712   1.000000
   11      -16.445020   1.000000
   12      -16.439730   1.000000
   13      -16.438146   1.000000
   14      -16.437093   1.000000
   15      -16.419574   1.000000
   16      -16.418629   1.000000
   17      -16.412047   1.000000
   18      -16.411991   1.000000
   19      -16.410796   1.000000
   20      -16.403972   1.000000
   21       -8.635473   1.000000
   22       -8.358829   1.000000
   23       -7.707268   1.000000
   24       -7.331591   1.000000
   25       -2.203659   1.000000
   26       -1.303229   1.000000
   27       -0.632919   1.000000
   28       -0.277840   1.000000
   29        0.219535   1.000000
   30        1.660986   1.000000
   31        1.725757   1.000000
   32        1.866433   1.000000
   33        2.103566   1.000000
   34        2.175424   1.000000
   35        2.782055   1.000000
   36        3.077494   1.000000
   37        3.338987   1.000000
   38        3.739789   1.000000
   39        4.138634   1.000000
   40        4.364439   1.000000
   41        5.620875   0.000000
   42        7.489897   0.000000
   43        7.791851   0.000000
   44        7.869005   0.000000
   45        8.000885   0.000000
   46        8.214972   0.000000
   47        8.721023   0.000000
   48        9.175726   0.000000
   49        9.325742   0.000000
   50        9.504143   0.000000
   51       10.060762   0.000000
   52       10.409663   0.000000
   53       10.763585   0.000000
   54       10.863945   0.000000
   55       11.089075   0.000000
   56       11.726143   0.000000
   57       11.759062   0.000000
   58       12.597161   0.000000
   59       13.038917   0.000000
   60       13.334228   0.000000

 -0.1265474E-01  0.4761905E-01  0.0000000E+00  0.1639344E-01
    1      -16.481601   1.000000
    2      -16.473752   1.000000
    3      -16.470128   1.000000
    4      -16.469104   1.000000
    5      -16.467289   1.000000
    6      -16.465960   1.000000
    7      -16.465562   1.000000
    8      -16.462404   1.000000
    9      -16.452037   1.000000
   10      -16.450721   1.000000
   11      -16.445033   1.000000
   12      -16.439529   1.000000
   13      -16.438316   1.000000
   14      -16.437093   1.000000
   15      -16.419609   1.000000
   16      -16.418603   1.000000
   17      -16.412063   1.000000
   18      -16.411941   1.000000
   19      -16.410816   1.000000
   20      -16.403966   1.000000
   21       -8.637903   1.000000
   22       -8.360940   1.000000
   23       -7.708422   1.000000
   24       -7.331842   1.000000
   25       -2.200629   1.000000
   26       -1.297255   1.000000
   27       -0.629063   1.000000
   28       -0.266649   1.000000
   29        0.218456   1.000000
   30        1.660500   1.000000
   31        1.749492   1.000000
   32        1.839456   1.000000
   33        2.102133   1.000000
   34        2.174345   1.000000
   35        2.781882   1.000000
   36        3.073181   1.000000
   37        3.340988   1.000000
   38        3.730915   1.000000
   39        4.138330   1.000000
   40        4.366176   1.000000
   41        5.617283   0.000000
   42        7.489645   0.000000
   43        7.781922   0.000000
   44        7.860388   0.000000
   45        8.020831   0.000000
   46        8.235595   0.000000
   47        8.722565   0.000000
   48        9.198314   0.000000
   49        9.349185   0.000000
   50        9.483372   0.000000
   51       10.062503   0.000000
   52       10.434499   0.000000
   53       10.748763   0.000000
   54       10.857073   0.000000
   55       11.114729   0.000000
   56       11.745016   0.000000
   57       11.776302   0.000000
   58       12.568775   0.000000
   59       13.031599   0.000000
   60       13.342641   0.000000

  0.1265474E-01  0.4761905E-01  0.0000000E+00  0.1639344E-01
    1      -16.481601   1.000000
    2      -16.473752   1.000000
    3      -16.470128   1.000000
    4      -16.469104   1.000000
    5      -16.467289   1.000000
    6      -16.465960   1.000000
    7      -16.465562   1.000000
    8      -16.462404   1.000000
    9      -16.452037   1.000000
   10      -16.450721   1.000000
   11      -16.445033   1.000000
   12      -16.439529   1.000000
   13      -16.438316   1.000000
   14      -16.437093   1.000000
   15      -16.419609   1.000000
   16      -16.418603   1.000000
   17      -16.412063   1.000000
   18      -16.411941   1.000000
   19      -16.410816   1.000000
   20      -16.403966   1.000000
   21       -8.637903   1.000000
   22       -8.360940   1.000000
   23       -7.708422   1.000000
   24       -7.331842   1.000000
   25       -2.200629   1.000000
   26       -1.297255   1.000000
   27       -0.629063   1.000000
   28       -0.266649   1.000000
   29        0.218456   1.000000
   30        1.660500   1.000000
   31        1.749492   1.000000
   32        1.839456   1.000000
   33        2.102133   1.000000
   34        2.174345   1.000000
   35        2.781882   1.000000
   36        3.073181   1.000000
   37        3.340988   1.000000
   38        3.730915   1.000000
   39        4.138330   1.000000
   40        4.366176   1.000000
   41        5.617283   0.000000
   42        7.489645   0.000000
   43        7.781922   0.000000
   44        7.860388   0.000000
   45        8.020831   0.000000
   46        8.235595   0.000000
   47        8.722565   0.000000
   48        9.198314   0.000000
   49        9.349185   0.000000
   50        9.483372   0.000000
   51       10.062503   0.000000
   52       10.434500   0.000000
   53       10.748765   0.000000
   54       10.857074   0.000000
   55       11.114732   0.000000
   56       11.745056   0.000000
   57       11.776344   0.000000
   58       12.581377   0.000000
   59       13.041867   0.000000
   60       13.401328   0.000000

  0.2530948E-01  0.4761905E-01  0.0000000E+00  0.1639344E-01
    1      -16.481517   1.000000
    2      -16.473712   1.000000
    3      -16.470052   1.000000
    4      -16.469147   1.000000
    5      -16.467233   1.000000
    6      -16.465999   1.000000
    7      -16.465615   1.000000
    8      -16.462445   1.000000
    9      -16.452008   1.000000
   10      -16.450712   1.000000
   11      -16.445020   1.000000
   12      -16.439730   1.000000
   13      -16.438146   1.000000
   14      -16.437093   1.000000
   15      -16.419574   1.000000
   16      -16.418629   1.000000
   17      -16.412047   1.000000
   18      -16.411991   1.000000
   19      -16.410796   1.000000
   20      -16.403972   1.000000
   21       -8.635473   1.000000
   22       -8.358829   1.000000
   23       -7.707268   1.000000
   24       -7.331591   1.000000
   25       -2.203659   1.000000
   26       -1.303229   1.000000
   27       -0.632919   1.000000
   28       -0.277840   1.000000
   29        0.219535   1.000000
   30        1.660986   1.000000
   31        1.725757   1.000000
   32        1.866433   1.000000
   33        2.103566   1.000000
   34        2.175424   1.000000
   35        2.782055   1.000000
   36        3.077494   1.000000
   37        3.338987   1.000000
   38        3.739789   1.000000
   39        4.138634   1.000000
   40        4.364439   1.000000
   41        5.620875   0.000000
   42        7.489897   0.000000
   43        7.791851   0.000000
   44        7.869005   0.000000
   45        8.000885   0.000000
   46        8.214972   0.000000
   47        8.721023   0.000000
   48        9.175726   0.000000
   49        9.325742   0.000000
   50        9.504143   0.000000
   51       10.060762   0.000000
   52       10.409663   0.000000
   53       10.763584   0.000000
   54       10.863945   0.000000
   55       11.089074   0.000000
   56       11.726081   0.000000
   57       11.759064   0.000000
   58       12.588183   0.000000
   59       13.025958   0.000000
   60       13.395881   0.000000

  0.0000000E+00  0.2017255E-01  0.0000000E+00  0.1639344E-01
    1      -16.481707   1.000000
    2      -16.473816   1.000000
    3      -16.470137   1.000000
    4      -16.469026   1.000000
    5      -16.467322   1.000000
    6      -16.465851   1.000000
    7      -16.465523   1.000000
    8      -16.462341   1.000000
    9      -16.452167   1.000000
   10      -16.450923   1.000000
   11      -16.445069   1.000000
   12      -16.439496   1.000000
   13      -16.438362   1.000000
   14      -16.437090   1.000000
   15      -16.419576   1.000000
   16      -16.418669   1.000000
   17      -16.411998   1.000000
   18      -16.411890   1.000000
   19      -16.410856   1.000000
   20      -16.403931   1.000000
   21       -8.645652   1.000000
   22       -8.368057   1.000000
   23       -7.709470   1.000000
   24       -7.330385   1.000000
   25       -2.173330   1.000000
   26       -1.280080   1.000000
   27       -0.578264   1.000000
   28       -0.234275   1.000000
   29        0.213564   1.000000
   30        1.668703   1.000000
   31        1.751290   1.000000
   32        1.766573   1.000000
   33        2.050453   1.000000
   34        2.164088   1.000000
   35        2.775081   1.000000
   36        3.058506   1.000000
   37        3.337962   1.000000
   38        3.693163   1.000000
   39        4.164153   1.000000
   40        4.358328   1.000000
   41        5.616513   0.000000
   42        7.564575   0.000000
   43        7.776218   0.000000
   44        7.834476   0.000000
   45        8.033112   0.000000
   46        8.297387   0.000000
   47        8.702413   0.000000
   48        9.246649   0.000000
   49        9.410507   0.000000
   50        9.506974   0.000000
   51       10.066928   0.000000
   52       10.493433   0.000000
   53       10.796922   0.000000
   54       10.835713   0.000000
   55       11.133091   0.000000
   56       11.725618   0.000000
   57       11.784107   0.000000
   58       12.553258   0.000000
   59       13.105013   0.000000
   60       13.361132   0.000000

  0.0000000E+00  0.3389580E-01  0.0000000E+00  0.1639344E-01
    1      -16.481676   1.000000
    2      -16.473796   1.000000
    3      -16.470144   1.000000
    4      -16.469051   1.000000
    5      -16.467317   1.000000
    6      -16.465890   1.000000
    7      -16.465531   1.000000
    8      -16.462360   1.000000
    9      -16.452119   1.000000
   10      -16.450844   1.000000
   11      -16.445056   1.000000
   12      -16.439477   1.000000
   13      -16.438372   1.000000
   14      -16.437092   1.000000
   15      -16.419595   1.000000
   16      -16.418638   1.000000
   17      -16.412027   1.000000
   18      -16.411902   1.000000
   19      -16.410843   1.000000
   20      -16.403944   1.000000
   21       -8.642882   1.000000
   22       -8.365497   1.000000
   23       -7.709200   1.000000
   24       -7.330996   1.000000
   25       -2.183928   1.000000
   26       -1.286152   1.000000
   27       -0.598061   1.000000
   28       -0.246081   1.000000
   29        0.215410   1.000000
   30        1.662942   1.000000
   31        1.755627   1.000000
   32        1.792704   1.000000
   33        2.071259   1.000000
   34        2.168049   1.000000
   35        2.777788   1.000000
   36        3.063661   1.000000
   37        3.339460   1.000000
   38        3.707156   1.000000
   39        4.153488   1.000000
   40        4.362051   1.000000
   41        5.616214   0.000000
   42        7.533585   0.000000
   43        7.777085   0.000000
   44        7.843886   0.000000
   45        8.031966   0.000000
   46        8.275428   0.000000
   47        8.710755   0.000000
   48        9.230520   0.000000
   49        9.389113   0.000000
   50        9.493404   0.000000
   51       10.066089   0.000000
   52       10.473206   0.000000
   53       10.774628   0.000000
   54       10.843007   0.000000
   55       11.129476   0.000000
   56       11.736494   0.000000
   57       11.783346   0.000000
   58       12.568648   0.000000
   59       13.072960   0.000000
   60       13.287973   0.000000

  0.0000000E+00  0.6134230E-01  0.0000000E+00  0.1639344E-01
    1      -16.481566   1.000000
    2      -16.473725   1.000000
    3      -16.470165   1.000000
    4      -16.469138   1.000000
    5      -16.467296   1.000000
    6      -16.466022   1.000000
    7      -16.465562   1.000000
    8      -16.462429   1.000000
    9      -16.451947   1.000000
   10      -16.450567   1.000000
   11      -16.445012   1.000000
   12      -16.439408   1.000000
   13      -16.438411   1.000000
   14      -16.437095   1.000000
   15      -16.419651   1.000000
   16      -16.418538   1.000000
   17      -16.412124   1.000000
   18      -16.411950   1.000000
   19      -16.410797   1.000000
   20      -16.403991   1.000000
   21       -8.633155   1.000000
   22       -8.356508   1.000000
   23       -7.708316   1.000000
   24       -7.333193   1.000000
   25       -2.220073   1.000000
   26       -1.307329   1.000000
   27       -0.667089   1.000000
   28       -0.284018   1.000000
   29        0.221703   1.000000
   30        1.661802   1.000000
   31        1.770864   1.000000
   32        1.864264   1.000000
   33        2.140565   1.000000
   34        2.181963   1.000000
   35        2.787211   1.000000
   36        3.082980   1.000000
   37        3.344616   1.000000
   38        3.755118   1.000000
   39        4.118997   1.000000
   40        4.371686   1.000000
   41        5.616473   0.000000
   42        7.434128   0.000000
   43        7.780651   0.000000
   44        7.874781   0.000000
   45        8.016808   0.000000
   46        8.201109   0.000000
   47        8.738987   0.000000
   48        9.174709   0.000000
   49        9.315350   0.000000
   50        9.455865   0.000000
   51       10.056408   0.000000
   52       10.404561   0.000000
   53       10.704320   0.000000
   54       10.871794   0.000000
   55       11.115018   0.000000
   56       11.770884   0.000000
   57       11.780855   0.000000
   58       12.570599   0.000000
   59       12.996457   0.000000
   60       13.311309   0.000000

  0.0000000E+00  0.7506555E-01  0.0000000E+00  0.1639344E-01
    1      -16.481489   1.000000
    2      -16.473674   1.000000
    3      -16.470182   1.000000
    4      -16.469198   1.000000
    5      -16.467283   1.000000
    6      -16.466115   1.000000
    7      -16.465583   1.000000
    8      -16.462477   1.000000
    9      -16.451821   1.000000
   10      -16.450376   1.000000
   11      -16.444980   1.000000
   12      -16.439361   1.000000
   13      -16.438438   1.000000
   14      -16.437100   1.000000
   15      -16.419685   1.000000
   16      -16.418473   1.000000
   17      -16.412191   1.000000
   18      -16.411986   1.000000
   19      -16.410763   1.000000
   20      -16.404023   1.000000
   21       -8.626220   1.000000
   22       -8.350098   1.000000
   23       -7.707749   1.000000
   24       -7.334809   1.000000
   25       -2.244883   1.000000
   26       -1.322261   1.000000
   27       -0.715339   1.000000
   28       -0.308885   1.000000
   29        0.226349   1.000000
   30        1.668187   1.000000
   31        1.781739   1.000000
   32        1.907052   1.000000
   33        2.186676   1.000000
   34        2.191888   1.000000
   35        2.793854   1.000000
   36        3.097872   1.000000
   37        3.348192   1.000000
   38        3.788293   1.000000
   39        4.096337   1.000000
   40        4.376213   1.000000
   41        5.617836   0.000000
   42        7.369592   0.000000
   43        7.783117   0.000000
   44        7.895227   0.000000
   45        7.998259   0.000000
   46        8.150548   0.000000
   47        8.758219   0.000000
   48        9.135772   0.000000
   49        9.264033   0.000000
   50        9.436874   0.000000
   51       10.044813   0.000000
   52       10.357562   0.000000
   53       10.660451   0.000000
   54       10.894664   0.000000
   55       11.104154   0.000000
   56       11.779559   0.000000
   57       11.793163   0.000000
   58       12.583595   0.000000
   59       12.956481   0.000000
   60       13.359858   0.000000

  0.0000000E+00  0.4761905E-01 -0.7088365E-01  0.1639344E-01
    1      -16.481550   1.000000
    2      -16.473905   1.000000
    3      -16.470092   1.000000
    4      -16.469069   1.000000
    5      -16.467338   1.000000
    6      -16.466175   1.000000
    7      -16.465316   1.000000
    8      -16.462410   1.000000
    9      -16.452009   1.000000
   10      -16.450726   1.000000
   11      -16.444970   1.000000
   12      -16.439426   1.000000
   13      -16.438492   1.000000
   14      -16.437130   1.000000
   15      -16.419594   1.000000
   16      -16.418591   1.000000
   17      -16.412079   1.000000
   18      -16.411934   1.000000
   19      -16.410718   1.000000
   20      -16.404035   1.000000
   21       -8.636249   1.000000
   22       -8.366938   1.000000
   23       -7.702288   1.000000
   24       -7.335629   1.000000
   25       -2.193488   1.000000
   26       -1.324629   1.000000
   27       -0.605176   1.000000
   28       -0.263609   1.000000
   29        0.234842   1.000000
   30        1.646752   1.000000
   31        1.765519   1.000000
   32        1.824078   1.000000
   33        2.114373   1.000000
   34        2.164627   1.000000
   35        2.792998   1.000000
   36        3.063614   1.000000
   37        3.336443   1.000000
   38        3.677428   1.000000
   39        4.144690   1.000000
   40        4.366567   1.000000
   41        5.682743   0.000000
   42        7.482979   0.000000
   43        7.759674   0.000000
   44        7.859423   0.000000
   45        8.052244   0.000000
   46        8.248709   0.000000
   47        8.716224   0.000000
   48        9.135390   0.000000
   49        9.429849   0.000000
   50        9.484156   0.000000
   51       10.030841   0.000000
   52       10.436011   0.000000
   53       10.737643   0.000000
   54       10.828989   0.000000
   55       11.129919   0.000000
   56       11.743269   0.000000
   57       11.796816   0.000000
   58       12.543470   0.000000
   59       13.120854   0.000000
   60       13.351033   0.000000

  0.0000000E+00  0.4761905E-01 -0.3544182E-01  0.1639344E-01
    1      -16.481609   1.000000
    2      -16.473801   1.000000
    3      -16.470137   1.000000
    4      -16.469083   1.000000
    5      -16.467315   1.000000
    6      -16.466022   1.000000
    7      -16.465469   1.000000
    8      -16.462394   1.000000
    9      -16.452036   1.000000
   10      -16.450724   1.000000
   11      -16.445021   1.000000
   12      -16.439442   1.000000
   13      -16.438414   1.000000
   14      -16.437103   1.000000
   15      -16.419614   1.000000
   16      -16.418593   1.000000
   17      -16.412072   1.000000
   18      -16.411925   1.000000
   19      -16.410796   1.000000
   20      -16.403982   1.000000
   21       -8.638096   1.000000
   22       -8.362982   1.000000
   23       -7.707163   1.000000
   24       -7.332854   1.000000
   25       -2.198085   1.000000
   26       -1.302865   1.000000
   27       -0.621848   1.000000
   28       -0.263077   1.000000
   29        0.222275   1.000000
   30        1.656992   1.000000
   31        1.762997   1.000000
   32        1.825098   1.000000
   33        2.104999   1.000000
   34        2.171627   1.000000
   35        2.784671   1.000000
   36        3.069670   1.000000
   37        3.340376   1.000000
   38        3.714857   1.000000
   39        4.139900   1.000000
   40        4.366711   1.000000
   41        5.633133   0.000000
   42        7.487736   0.000000
   43        7.773755   0.000000
   44        7.857675   0.000000
   45        8.034073   0.000000
   46        8.244474   0.000000
   47        8.721289   0.000000
   48        9.183549   0.000000
   49        9.380522   0.000000
   50        9.477755   0.000000
   51       10.054932   0.000000
   52       10.441519   0.000000
   53       10.741947   0.000000
   54       10.847960   0.000000
   55       11.125163   0.000000
   56       11.749506   0.000000
   57       11.785790   0.000000
   58       12.552552   0.000000
   59       13.059238   0.000000
   60       13.466260   0.000000

  0.0000000E+00  0.4761905E-01  0.3544182E-01  0.1639344E-01
    1      -16.481609   1.000000
    2      -16.473801   1.000000
    3      -16.470137   1.000000
    4      -16.469083   1.000000
    5      -16.467315   1.000000
    6      -16.466022   1.000000
    7      -16.465469   1.000000
    8      -16.462394   1.000000
    9      -16.452036   1.000000
   10      -16.450724   1.000000
   11      -16.445021   1.000000
   12      -16.439442   1.000000
   13      -16.438414   1.000000
   14      -16.437103   1.000000
   15      -16.419614   1.000000
   16      -16.418593   1.000000
   17      -16.412072   1.000000
   18      -16.411925   1.000000
   19      -16.410796   1.000000
   20      -16.403982   1.000000
   21       -8.638096   1.000000
   22       -8.362982   1.000000
   23       -7.707163   1.000000
   24       -7.332854   1.000000
   25       -2.198085   1.000000
   26       -1.302865   1.000000
   27       -0.621848   1.000000
   28       -0.263077   1.000000
   29        0.222275   1.000000
   30        1.656992   1.000000
   31        1.762997   1.000000
   32        1.825098   1.000000
   33        2.104999   1.000000
   34        2.171627   1.000000
   35        2.784671   1.000000
   36        3.069670   1.000000
   37        3.340376   1.000000
   38        3.714857   1.000000
   39        4.139900   1.000000
   40        4.366711   1.000000
   41        5.633133   0.000000
   42        7.487736   0.000000
   43        7.773755   0.000000
   44        7.857675   0.000000
   45        8.034073   0.000000
   46        8.244474   0.000000
   47        8.721289   0.000000
   48        9.183549   0.000000
   49        9.380522   0.000000
   50        9.477755   0.000000
   51       10.054932   0.000000
   52       10.441519   0.000000
   53       10.741947   0.000000
   54       10.847960   0.000000
   55       11.125163   0.000000
   56       11.749508   0.000000
   57       11.785803   0.000000
   58       12.552053   0.000000
   59       13.091378   0.000000
   60       13.613781   0.000000

  0.0000000E+00  0.4761905E-01  0.7088365E-01  0.1639344E-01
    1      -16.481550   1.000000
    2      -16.473905   1.000000
    3      -16.470092   1.000000
    4      -16.469069   1.000000
    5      -16.467338   1.000000
    6      -16.466175   1.000000
    7      -16.465316   1.000000
    8      -16.462410   1.000000
    9      -16.452009   1.000000
   10      -16.450726   1.000000
   11      -16.444970   1.000000
   12      -16.439426   1.000000
   13      -16.438492   1.000000
   14      -16.437130   1.000000
   15      -16.419594   1.000000
   16      -16.418591   1.000000
   17      -16.412079   1.000000
   18      -16.411934   1.000000
   19      -16.410718   1.000000
   20      -16.404035   1.000000
   21       -8.636249   1.000000
   22       -8.366938   1.000000
   23       -7.702288   1.000000
   24       -7.335629   1.000000
   25       -2.193488   1.000000
   26       -1.324629   1.000000
   27       -0.605176   1.000000
   28       -0.263609   1.000000
   29        0.234842   1.000000
   30        1.646752   1.000000
   31        1.765519   1.000000
   32        1.824078   1.000000
   33        2.114373   1.000000
   34        2.164627   1.000000
   35        2.792998   1.000000
   36        3.063614   1.000000
   37        3.336443   1.000000
   38        3.677428   1.000000
   39        4.144690   1.000000
   40        4.366567   1.000000
   41        5.682743   0.000000
   42        7.482979   0.000000
   43        7.759674   0.000000
   44        7.859423   0.000000
   45        8.052244   0.000000
   46        8.248709   0.000000
   47        8.716224   0.000000
   48        9.135390   0.000000
   49        9.429849   0.000000
   50        9.484156   0.000000
   51       10.030841   0.000000
   52       10.436011   0.000000
   53       10.737641   0.000000
   54       10.828987   0.000000
   55       11.129911   0.000000
   56       11.743257   0.000000
   57       11.796566   0.000000
   58       12.527319   0.000000
   59       13.076939   0.000000
   60       13.274205   0.000000

 -0.2530948E-01  0.2017255E-01  0.0000000E+00  0.1639344E-01
    1      -16.481595   1.000000
    2      -16.473762   1.000000
    3      -16.470036   1.000000
    4      -16.469085   1.000000
    5      -16.467248   1.000000
    6      -16.465907   1.000000
    7      -16.465594   1.000000
    8      -16.462395   1.000000
    9      -16.452127   1.000000
   10      -16.450912   1.000000
   11      -16.445052   1.000000
   12      -16.439771   1.000000
   13      -16.438116   1.000000
   14      -16.437100   1.000000
   15      -16.419524   1.000000
   16      -16.418710   1.000000
   17      -16.411979   1.000000
   18      -16.411955   1.000000
   19      -16.410829   1.000000
   20      -16.403940   1.000000
   21       -8.642406   1.000000
   22       -8.365234   1.000000
   23       -7.707932   1.000000
   24       -7.330059   1.000000
   25       -2.177752   1.000000
   26       -1.288503   1.000000
   27       -0.583415   1.000000
   28       -0.250673   1.000000
   29        0.215035   1.000000
   30        1.672987   1.000000
   31        1.711588   1.000000
   32        1.811258   1.000000
   33        2.053766   1.000000
   34        2.161999   1.000000
   35        2.779609   1.000000
   36        3.061501   1.000000
   37        3.335715   1.000000
   38        3.703581   1.000000
   39        4.164642   1.000000
   40        4.355773   1.000000
   41        5.621205   0.000000
   42        7.569220   0.000000
   43        7.790271   0.000000
   44        7.846332   0.000000
   45        7.994749   0.000000
   46        8.281764   0.000000
   47        8.702073   0.000000
   48        9.210521   0.000000
   49        9.379727   0.000000
   50        9.526488   0.000000
   51       10.070068   0.000000
   52       10.468128   0.000000
   53       10.800204   0.000000
   54       10.843810   0.000000
   55       11.100125   0.000000
   56       11.695535   0.000000
   57       11.756785   0.000000
   58       12.586672   0.000000
   59       13.070457   0.000000
   60       13.450615   0.000000

 -0.1265474E-01  0.2017255E-01  0.0000000E+00  0.1639344E-01
    1      -16.481679   1.000000
    2      -16.473803   1.000000
    3      -16.470112   1.000000
    4      -16.469041   1.000000
    5      -16.467303   1.000000
    6      -16.465865   1.000000
    7      -16.465541   1.000000
    8      -16.462354   1.000000
    9      -16.452157   1.000000
   10      -16.450920   1.000000
   11      -16.445065   1.000000
   12      -16.439575   1.000000
   13      -16.438291   1.000000
   14      -16.437092   1.000000
   15      -16.419563   1.000000
   16      -16.418680   1.000000
   17      -16.411991   1.000000
   18      -16.411909   1.000000
   19      -16.410849   1.000000
   20      -16.403933   1.000000
   21       -8.644840   1.000000
   22       -8.367351   1.000000
   23       -7.709085   1.000000
   24       -7.330303   1.000000
   25       -2.174437   1.000000
   26       -1.282191   1.000000
   27       -0.579546   1.000000
   28       -0.238390   1.000000
   29        0.213923   1.000000
   30        1.669787   1.000000
   31        1.733636   1.000000
   32        1.785463   1.000000
   33        2.051281   1.000000
   34        2.163554   1.000000
   35        2.776221   1.000000