<?xml version="1.0" encoding="ISO-8859-1"?>
<modeling>
 <generator>
  <i name="program" type="string">vasp </i>
  <i name="version" type="string">5.4.4.18Apr17-6-g9f103f2a35  </i>
  <i name="subversion" type="string">(build Mar 20 2018 18:01:20) complex            parallel </i>
  <i name="platform" type="string">LinuxGNU </i>
  <i name="date" type="string">2020 04 17 </i>
  <i name="time" type="string">18:43:49 </i>
 </generator>
 <incar>
  <i type="string" name="SYSTEM"> SnSe</i>
  <i type="int" name="ISTART">     1</i>
  <i type="string" name="PREC">accurate</i>
  <i type="string" name="ALGO"> A</i>
  <i type="logical" name="ADDGRID"> T  </i>
  <i type="int" name="ICHARG">    11</i>
  <i name="EDIFF">      0.00000010</i>
  <i name="ENCUT">    600.00000000</i>
  <i type="int" name="NBANDS">    60</i>
  <i type="string" name="LREAL"> Auto</i>
  <i type="logical" name="LPLANE"> T  </i>
  <i type="int" name="ISMEAR">     0</i>
  <i name="SIGMA">      0.05000000</i>
  <v type="int" name="KPOINT_BSE">    -1     0     0     0</v>
 </incar>
 <structure name="primitive_cell" >
  <crystal>
   <varray name="basis" >
    <v>       4.20759812       0.00000000       0.00000000 </v>
    <v>       0.00000000       4.56286825       0.00000000 </v>
    <v>       0.00000000       0.00000000      11.78411723 </v>
   </varray>
   <i name="volume">    226.23991848 </i>
   <varray name="rec_basis" >
    <v>       0.23766528      -0.00000000       0.00000000 </v>
    <v>       0.00000000       0.21916039       0.00000000 </v>
    <v>      -0.00000000      -0.00000000       0.08485998 </v>
   </varray>
  </crystal>
  <varray name="positions" >
   <v>       0.25000000       0.11535153       0.12105944 </v>
   <v>       0.25000000       0.02384045       0.35487953 </v>
   <v>      -0.25000000      -0.47615955       0.14512047 </v>
   <v>       0.25000000       0.47615955      -0.14512047 </v>
   <v>      -0.25000000      -0.11535153      -0.12105944 </v>
   <v>      -0.25000000      -0.38464847       0.37894056 </v>
   <v>       0.25000000       0.38464847      -0.37894056 </v>
   <v>      -0.25000000      -0.02384045      -0.35487953 </v>
  </varray>
 </structure>
 <varray name="primitive_index" >
  <v type="int" >        1 </v>
  <v type="int" >        7 </v>
  <v type="int" >        5 </v>
  <v type="int" >        6 </v>
  <v type="int" >        2 </v>
  <v type="int" >        3 </v>
  <v type="int" >        4 </v>
  <v type="int" >        8 </v>
 </varray>
 <kpoints>
  <varray name="kpointlist" >
   <v>       0.00000000       0.04761905       0.00000000 </v>
   <v>      -0.02530948       0.04761905       0.00000000 </v>
   <v>      -0.01265474       0.04761905       0.00000000 </v>
   <v>       0.01265474       0.04761905       0.00000000 </v>
   <v>       0.02530948       0.04761905       0.00000000 </v>
   <v>       0.00000000       0.02017255       0.00000000 </v>
   <v>       0.00000000       0.03389580       0.00000000 </v>
   <v>       0.00000000       0.06134230       0.00000000 </v>
   <v>       0.00000000       0.07506555       0.00000000 </v>
   <v>       0.00000000       0.04761905      -0.07088365 </v>
   <v>       0.00000000       0.04761905      -0.03544182 </v>
   <v>       0.00000000       0.04761905       0.03544182 </v>
   <v>       0.00000000       0.04761905       0.07088365 </v>
   <v>      -0.02530948       0.02017255       0.00000000 </v>
   <v>      -0.01265474       0.02017255       0.00000000 </v>
   <v>       0.01265474       0.02017255       0.00000000 </v>
   <v>       0.02530948       0.02017255       0.00000000 </v>
   <v>      -0.02530948       0.03389580       0.00000000 </v>
   <v>      -0.01265474       0.03389580       0.00000000 </v>
   <v>       0.01265474       0.03389580       0.00000000 </v>
   <v>       0.02530948       0.03389580       0.00000000 </v>
   <v>      -0.02530948       0.06134230       0.00000000 </v>
   <v>      -0.01265474       0.06134230       0.00000000 </v>
   <v>       0.01265474       0.06134230       0.00000000 </v>
   <v>       0.02530948       0.06134230       0.00000000 </v>
   <v>      -0.02530948       0.07506555       0.00000000 </v>
   <v>      -0.01265474       0.07506555       0.00000000 </v>
   <v>       0.01265474       0.07506555       0.00000000 </v>
   <v>       0.02530948       0.07506555       0.00000000 </v>
   <v>      -0.02530948       0.04761905      -0.07088365 </v>
   <v>      -0.01265474       0.04761905      -0.07088365 </v>
   <v>       0.01265474       0.04761905      -0.07088365 </v>
   <v>       0.02530948       0.04761905      -0.07088365 </v>
   <v>      -0.02530948       0.04761905      -0.03544182 </v>
   <v>      -0.01265474       0.04761905      -0.03544182 </v>
   <v>       0.01265474       0.04761905      -0.03544182 </v>
   <v>       0.02530948       0.04761905      -0.03544182 </v>
   <v>      -0.02530948       0.04761905       0.03544182 </v>
   <v>      -0.01265474       0.04761905       0.03544182 </v>
   <v>       0.01265474       0.04761905       0.03544182 </v>
   <v>       0.02530948       0.04761905       0.03544182 </v>
   <v>      -0.02530948       0.04761905       0.07088365 </v>
   <v>      -0.01265474       0.04761905       0.07088365 </v>
   <v>       0.01265474       0.04761905       0.07088365 </v>
   <v>       0.02530948       0.04761905       0.07088365 </v>
   <v>       0.00000000       0.02017255      -0.07088365 </v>
   <v>       0.00000000       0.03389580      -0.07088365 </v>
   <v>       0.00000000       0.06134230      -0.07088365 </v>
   <v>       0.00000000       0.07506555      -0.07088365 </v>
   <v>       0.00000000       0.02017255      -0.03544182 </v>
   <v>       0.00000000       0.03389580      -0.03544182 </v>
   <v>       0.00000000       0.06134230      -0.03544182 </v>
   <v>       0.00000000       0.07506555      -0.03544182 </v>
   <v>       0.00000000       0.02017255       0.03544182 </v>
   <v>       0.00000000       0.03389580       0.03544182 </v>
   <v>       0.00000000       0.06134230       0.03544182 </v>
   <v>       0.00000000       0.07506555       0.03544182 </v>
   <v>       0.00000000       0.02017255       0.07088365 </v>
   <v>       0.00000000       0.03389580       0.07088365 </v>
   <v>       0.00000000       0.06134230       0.07088365 </v>
   <v>       0.00000000       0.07506555       0.07088365 </v>
  </varray>
  <varray name="weights" >
   <v>       0.01639344 </v>
   <v>       0.01639344 </v>
   <v>       0.01639344 </v>
   <v>       0.01639344 </v>
   <v>       0.01639344 </v>
   <v>       0.01639344 </v>
   <v>       0.01639344 </v>
   <v>       0.01639344 </v>
   <v>       0.01639344 </v>
   <v>       0.01639344 </v>
   <v>       0.01639344 </v>
   <v>       0.01639344 </v>
   <v>       0.01639344 </v>
   <v>       0.01639344 </v>
   <v>       0.01639344 </v>
   <v>       0.01639344 </v>
   <v>       0.01639344 </v>
   <v>       0.01639344 </v>
   <v>       0.01639344 </v>
   <v>       0.01639344 </v>
   <v>       0.01639344 </v>
   <v>       0.01639344 </v>
   <v>       0.01639344 </v>
   <v>       0.01639344 </v>
   <v>       0.01639344 </v>
   <v>       0.01639344 </v>
   <v>       0.01639344 </v>
   <v>       0.01639344 </v>
   <v>       0.01639344 </v>
   <v>       0.01639344 </v>
   <v>       0.01639344 </v>
   <v>       0.01639344 </v>
   <v>       0.01639344 </v>
   <v>       0.01639344 </v>
   <v>       0.01639344 </v>
   <v>       0.01639344 </v>
   <v>       0.01639344 </v>
   <v>       0.01639344 </v>
   <v>       0.01639344 </v>
   <v>       0.01639344 </v>
   <v>       0.01639344 </v>
   <v>       0.01639344 </v>
   <v>       0.01639344 </v>
   <v>       0.01639344 </v>
   <v>       0.01639344 </v>
   <v>       0.01639344 </v>
   <v>       0.01639344 </v>
   <v>       0.01639344 </v>
   <v>       0.01639344 </v>
   <v>       0.01639344 </v>
   <v>       0.01639344 </v>
   <v>       0.01639344 </v>
   <v>       0.01639344 </v>
   <v>       0.01639344 </v>
   <v>       0.01639344 </v>
   <v>       0.01639344 </v>
   <v>       0.01639344 </v>
   <v>       0.01639344 </v>
   <v>       0.01639344 </v>
   <v>       0.01639344 </v>
   <v>       0.01639344 </v>
  </varray>
 </kpoints>
 <parameters>
  <separator name="general" >
   <i type="string" name="SYSTEM">SnSe</i>
   <i type="logical" name="LCOMPAT"> F  </i>
  </separator>
  <separator name="electronic" >
   <i type="string" name="PREC">accura</i>
   <i name="ENMAX">    600.00000000</i>
   <i name="ENAUG">    446.84200000</i>
   <i name="EDIFF">      0.00000010</i>
   <i type="int" name="IALGO">    58</i>
   <i type="int" name="IWAVPR">    10</i>
   <i type="int" name="NBANDS">    60</i>
   <i name="NELECT">     80.00000000</i>
   <i type="int" name="TURBO">     0</i>
   <i type="int" name="IRESTART">     0</i>
   <i type="int" name="NREBOOT">     0</i>
   <i type="int" name="NMIN">     0</i>
   <i name="EREF">      0.00000000</i>
   <separator name="electronic smearing" >
    <i type="int" name="ISMEAR">     0</i>
    <i name="SIGMA">      0.05000000</i>
    <i name="KSPACING">      0.50000000</i>
    <i type="logical" name="KGAMMA"> T  </i>
   </separator>
   <separator name="electronic projectors" >
    <i type="logical" name="LREAL"> T  </i>
    <v name="ROPT">     -0.00025000     -0.00025000</v>
    <i type="int" name="LMAXPAW">  -100</i>
    <i type="int" name="LMAXMIX">     2</i>
    <i type="logical" name="NLSPLINE"> F  </i>
   </separator>
   <separator name="electronic startup" >
    <i type="int" name="ISTART">     0</i>
    <i type="int" name="ICHARG">    11</i>
    <i type="int" name="INIWAV">     1</i>
   </separator>
   <separator name="electronic spin" >
    <i type="int" name="ISPIN">     1</i>
    <i type="logical" name="LNONCOLLINEAR"> F  </i>
    <v name="MAGMOM">      1.00000000      1.00000000      1.00000000      1.00000000      1.00000000      1.00000000      1.00000000      1.00000000</v>
    <i name="NUPDOWN">     -1.00000000</i>
    <i type="logical" name="LSORBIT"> F  </i>
    <v name="SAXIS">      0.00000000      0.00000000      1.00000000</v>
    <i type="logical" name="LSPIRAL"> F  </i>
    <v name="QSPIRAL">      0.00000000      0.00000000      0.00000000</v>
    <i type="logical" name="LZEROZ"> F  </i>
   </separator>
   <separator name="electronic exchange-correlation" >
    <i type="logical" name="LASPH"> F  </i>
    <i type="logical" name="LMETAGGA"> F  </i>
   </separator>
   <separator name="electronic convergence" >
    <i type="int" name="NELM">    60</i>
    <i type="int" name="NELMDL">     0</i>
    <i type="int" name="NELMIN">     2</i>
    <i name="ENINI">    600.00000000</i>
    <separator name="electronic convergence detail" >
     <i type="logical" name="LDIAG"> T  </i>
     <i type="logical" name="LSUBROT"> F  </i>
     <i name="WEIMIN">      0.00000000</i>
     <i name="EBREAK">      0.00000000</i>
     <i name="DEPER">      0.30000000</i>
     <i type="int" name="NRMM">     4</i>
     <i name="TIME">      0.40000000</i>
    </separator>
   </separator>
   <separator name="electronic mixer" >
    <i name="AMIX">      0.40000000</i>
    <i name="BMIX">      1.00000000</i>
    <i name="AMIN">      0.10000000</i>
    <i name="AMIX_MAG">      1.60000000</i>
    <i name="BMIX_MAG">      1.00000000</i>
    <separator name="electronic mixer details" >
     <i type="int" name="IMIX">     4</i>
     <i type="logical" name="MIXFIRST"> F  </i>
     <i type="int" name="MAXMIX">   -45</i>
     <i name="WC">    100.00000000</i>
     <i type="int" name="INIMIX">     1</i>
     <i type="int" name="MIXPRE">     1</i>
     <i type="int" name="MREMOVE">     5</i>
    </separator>
   </separator>
   <separator name="electronic dipolcorrection" >
    <i type="logical" name="LDIPOL"> F  </i>
    <i type="logical" name="LMONO"> F  </i>
    <i type="int" name="IDIPOL">     0</i>
    <i name="EPSILON">      1.00000000</i>
    <v name="DIPOL">   -100.00000000   -100.00000000   -100.00000000</v>
    <i name="EFIELD">      0.00000000</i>
   </separator>
  </separator>
  <separator name="grids" >
   <i type="int" name="NGX">    36</i>
   <i type="int" name="NGY">    36</i>
   <i type="int" name="NGZ">    96</i>
   <i type="int" name="NGXF">    72</i>
   <i type="int" name="NGYF">    72</i>
   <i type="int" name="NGZF">   192</i>
   <i type="logical" name="ADDGRID"> T  </i>
  </separator>
  <separator name="ionic" >
   <i type="int" name="NSW">     0</i>
   <i type="int" name="IBRION">    -1</i>
   <i type="int" name="MDALGO">     0</i>
   <i type="int" name="ISIF">     2</i>
   <i name="PSTRESS">      0.00000000</i>
   <i name="EDIFFG">      0.00000100</i>
   <i type="int" name="NFREE">     0</i>
   <i name="POTIM">      0.50000000</i>
   <i name="SMASS">     -3.00000000</i>
   <i name="SCALEE">      1.00000000</i>
  </separator>
  <separator name="ionic md" >
   <i name="TEBEG">      0.00010000</i>
   <i name="TEEND">      0.00010000</i>
   <i type="int" name="NBLOCK">     1</i>
   <i type="int" name="KBLOCK">     1</i>
   <i type="int" name="NPACO">   256</i>
   <i name="APACO">     16.00000000</i>
  </separator>
  <separator name="symmetry" >
   <i type="int" name="ISYM">     2</i>
   <i name="SYMPREC">      0.00001000</i>
  </separator>
  <separator name="dos" >
   <i type="int" name="LORBIT">     0</i>
   <v name="RWIGS">     -1.00000000     -1.00000000</v>
   <i type="int" name="NEDOS">   301</i>
   <i name="EMIN">     10.00000000</i>
   <i name="EMAX">    -10.00000000</i>
   <i name="EFERMI">      0.00000000</i>
  </separator>
  <separator name="writing" >
   <i type="int" name="NWRITE">     2</i>
   <i type="logical" name="LWAVE"> T  </i>
   <i type="logical" name="LDOWNSAMPLE"> F  </i>
   <i type="logical" name="LCHARG"> T  </i>
   <i type="logical" name="LPARD"> F  </i>
   <i type="logical" name="LVTOT"> F  </i>
   <i type="logical" name="LVHAR"> F  </i>
   <i type="logical" name="LELF"> F  </i>
   <i type="logical" name="LOPTICS"> F  </i>
   <v name="STM">      0.00000000      0.00000000      0.00000000      0.00000000      0.00000000      0.00000000      0.00000000</v>
  </separator>
  <separator name="performance" >
   <i type="int" name="NPAR">     4</i>
   <i type="int" name="NSIM">     4</i>
   <i type="int" name="NBLK">    -1</i>
   <i type="logical" name="LPLANE"> T  </i>
   <i type="logical" name="LSCALAPACK"> T  </i>
   <i type="logical" name="LSCAAWARE"> F  </i>
   <i type="logical" name="LSCALU"> F  </i>
   <i type="logical" name="LASYNC"> F  </i>
   <i type="logical" name="LORBITALREAL"> F  </i>
  </separator>
  <separator name="miscellaneous" >
   <i type="int" name="IDIOT">     3</i>
   <i type="int" name="ISPECIAL">     0</i>
   <i type="logical" name="LMUSIC"> F  </i>
   <v name="POMASS">    118.71000000     78.96000000</v>
   <v name="DARWINR">      0.00000000      0.00000000</v>
   <v name="DARWINV">      1.00000000      1.00000000</v>
   <i type="logical" name="LCORR"> T  </i>
  </separator>
  <i type="logical" name="GGA_COMPAT"> T  </i>
  <i type="logical" name="LBERRY"> F  </i>
  <i type="int" name="ICORELEVEL">     0</i>
  <i type="logical" name="LDAU"> F  </i>
  <i type="int" name="I_CONSTRAINED_M">     0</i>
  <separator name="electronic exchange-correlation" >
   <i type="string" name="GGA">--</i>
   <i type="int" name="VOSKOWN">     0</i>
   <i type="logical" name="LHFCALC"> F  </i>
   <i type="string" name="PRECFOCK"></i>
   <i type="logical" name="LSYMGRAD"> F  </i>
   <i type="logical" name="LHFONE"> F  </i>
   <i type="logical" name="LRHFCALC"> F  </i>
   <i type="logical" name="LTHOMAS"> F  </i>
   <i type="logical" name="LMODELHF"> F  </i>
   <i name="ENCUT4O">     -1.00000000</i>
   <i type="int" name="EXXOEP">     0</i>
   <i type="int" name="FOURORBIT">     0</i>
   <i name="AEXX">      0.00000000</i>
   <i name="HFALPHA">      0.00000000</i>
   <i name="MCALPHA">      0.00000000</i>
   <i name="ALDAX">      1.00000000</i>
   <i name="AGGAX">      1.00000000</i>
   <i name="ALDAC">      1.00000000</i>
   <i name="AGGAC">      1.00000000</i>
   <i type="int" name="NKREDX">     1</i>
   <i type="int" name="NKREDY">     1</i>
   <i type="int" name="NKREDZ">     1</i>
   <i type="logical" name="SHIFTRED"> F  </i>
   <i type="logical" name="ODDONLY"> F  </i>
   <i type="logical" name="EVENONLY"> F  </i>
   <i type="int" name="LMAXFOCK">     0</i>
   <i type="int" name="NMAXFOCKAE">     0</i>
   <i type="logical" name="LFOCKAEDFT"> F  </i>
   <i name="HFSCREEN">      0.00000000</i>
   <i name="HFSCREENC">      0.00000000</i>
   <i type="int" name="NBANDSGWLOW">     0</i>
  </separator>
  <separator name="vdW DFT" >
   <i type="logical" name="LUSE_VDW"> F  </i>
   <i name="Zab_VDW">     -0.84910000</i>
   <i name="PARAM1">      0.12340000</i>
   <i name="PARAM2">      1.00000000</i>
   <i name="PARAM3">      0.00000000</i>
  </separator>
  <separator name="model GW" >
   <i type="int" name="MODEL_GW">     0</i>
   <i name="MODEL_EPS0">     16.96799389</i>
   <i name="MODEL_ALPHA">      1.00000000</i>
  </separator>
  <separator name="linear response parameters" >
   <i type="logical" name="LEPSILON"> F  </i>
   <i type="logical" name="LRPA"> F  </i>
   <i type="logical" name="LNABLA"> F  </i>
   <i type="logical" name="LVEL"> F  </i>
   <i type="int" name="KINTER">     0</i>
   <i name="CSHIFT">      0.10000000</i>
   <i name="OMEGAMAX">     -1.00000000</i>
   <i name="DEG_THRESHOLD">      0.00200000</i>
   <i name="RTIME">     -0.10000000</i>
   <i name="WPLASMAI">      0.00000000</i>
   <v name="DFIELD">      0.00000000      0.00000000      0.00000000</v>
   <v name="WPLASMA">      0.00000000      0.00000000      0.00000000      0.00000000      0.00000000      0.00000000      0.00000000      0.00000000      0.00000000</v>
  </separator>
  <separator name="orbital magnetization" >
   <i type="logical" name="NUCIND"> F  </i>
   <v name="MAGPOS">      0.00000000      0.00000000      0.00000000</v>
   <i type="logical" name="LNICSALL"> T  </i>
   <i type="logical" name="ORBITALMAG"> F  </i>
   <i type="logical" name="LMAGBLOCH"> F  </i>
   <i type="logical" name="LCHIMAG"> F  </i>
   <i type="logical" name="LGAUGE"> T  </i>
   <i type="int" name="MAGATOM">     0</i>
   <v name="MAGDIPOL">      0.00000000      0.00000000      0.00000000</v>
   <v name="AVECCONST">      0.00000000      0.00000000      0.00000000</v>
  </separator>
  <separator name="response functions" >
   <i type="logical" name="LADDER"> F  </i>
   <i type="logical" name="LRPAFORCE"> F  </i>
   <i type="logical" name="LFXC"> F  </i>
   <i type="logical" name="LHARTREE"> T  </i>
   <i type="int" name="IBSE">     0</i>
   <v type="int" name="KPOINT">    -1     0     0     0</v>
   <i type="logical" name="LTCTE"> F  </i>
   <i type="logical" name="LTETE"> F  </i>
   <i type="logical" name="LTRIPLET"> F  </i>
   <i type="logical" name="LFXCEPS"> F  </i>
   <i type="logical" name="LFXHEG"> F  </i>
   <i type="int" name="NATURALO">     2</i>
   <i type="logical" name="L2ORDER"> F  </i>
   <i type="logical" name="LMP2LT"> F  </i>
   <i type="logical" name="LUSEW"> F  </i>
   <i name="ENCUTGW">     -2.00000000</i>
   <i name="ENCUTGWSOFT">     -2.00000000</i>
   <i name="ENCUTLF">     -1.00000000</i>
   <i type="int" name="LMAXMP2">    -1</i>
   <i name="SCISSOR">      0.00000000</i>
   <i type="int" name="NOMEGA">     0</i>
   <i type="int" name="NOMEGAR">     0</i>
   <i type="int" name="NBANDSGW">    -1</i>
   <i type="int" name="NBANDSO">    -1</i>
   <i type="int" name="NBANDSV">    -1</i>
   <i type="int" name="NELM">     1</i>
   <i type="int" name="NELMHF">     1</i>
   <i type="int" name="DIM">     3</i>
   <i type="int" name="ANTIRES">     0</i>
   <i name="OMEGAMAX">    -30.00000000</i>
   <i name="OMEGAMIN">    -30.00000000</i>
   <i name="OMEGATL">   -200.00000000</i>
   <i type="int" name="OMEGAGRID">   140</i>
   <i name="CSHIFT">     -0.10000000</i>
   <i type="logical" name="SELFENERGY"> F  </i>
   <i type="logical" name="LSPECTRAL"> F  </i>
   <i type="logical" name="LSPECTRALGW"> F  </i>
   <i type="logical" name="LSINGLES"> F  </i>
   <i type="logical" name="LFERMIGW"> F  </i>
   <i type="logical" name="ODDONLYGW"> F  </i>
   <i type="logical" name="EVENONLYGW"> F  </i>
   <i type="int" name="NKREDLFX">     1</i>
   <i type="int" name="NKREDLFY">     1</i>
   <i type="int" name="NKREDLFZ">     1</i>
   <i type="int" name="MAXMEM">  2800</i>
   <i type="int" name="TELESCOPE">     0</i>
   <i type="int" name="TAUPAR">     1</i>
   <i type="int" name="OMEGAPAR">    -1</i>
   <i name="LAMBDA">      1.00000000</i>
  </separator>
  <separator name="External order field" >
   <i name="OFIELD_KAPPA">      0.00000000</i>
   <v name="OFIELD_K">      0.00000000      0.00000000      0.00000000</v>
   <i name="OFIELD_Q6_NEAR">      0.00000000</i>
   <i name="OFIELD_Q6_FAR">      0.00000000</i>
   <i name="OFIELD_A">      0.00000000</i>
  </separator>
 </parameters>
 <atominfo>
  <atoms>       8 </atoms>
  <types>       2 </types>
  <array name="atoms" >
   <dimension dim="1">ion</dimension>
   <field type="string">element</field>
   <field type="int">atomtype</field>
   <set>
    <rc><c>Sn</c><c>   1</c></rc>
    <rc><c>Sn</c><c>   1</c></rc>
    <rc><c>Sn</c><c>   1</c></rc>
    <rc><c>Sn</c><c>   1</c></rc>
    <rc><c>Se</c><c>   2</c></rc>
    <rc><c>Se</c><c>   2</c></rc>
    <rc><c>Se</c><c>   2</c></rc>
    <rc><c>Se</c><c>   2</c></rc>
   </set>
  </array>
  <array name="atomtypes" >
   <dimension dim="1">type</dimension>
   <field type="int">atomspertype</field>
   <field type="string">element</field>
   <field>mass</field>
   <field>valence</field>
   <field type="string">pseudopotential</field>
   <set>
    <rc><c>   4</c><c>Sn</c><c>    118.71000000</c><c>     14.00000000</c><c>  PAW_PBE Sn_d 06Sep2000                </c></rc>
    <rc><c>   4</c><c>Se</c><c>     78.96000000</c><c>      6.00000000</c><c>  PAW_PBE Se 06Sep2000                  </c></rc>
   </set>
  </array>
 </atominfo>
 <structure name="initialpos" >
  <crystal>
   <varray name="basis" >
    <v>       4.20759812       0.00000000       0.00000000 </v>
    <v>       0.00000000       4.56286825       0.00000000 </v>
    <v>       0.00000000       0.00000000      11.78411723 </v>
   </varray>
   <i name="volume">    226.23991848 </i>
   <varray name="rec_basis" >
    <v>       0.23766528      -0.00000000       0.00000000 </v>
    <v>       0.00000000       0.21916039       0.00000000 </v>
    <v>      -0.00000000      -0.00000000       0.08485998 </v>
   </varray>
  </crystal>
  <varray name="positions" >
   <v>       0.25000000       0.11535153       0.12105944 </v>
   <v>       0.75000000       0.88464847       0.87894056 </v>
   <v>       0.75000000       0.61535153       0.37894056 </v>
   <v>       0.25000000       0.38464847       0.62105944 </v>
   <v>       0.75000000       0.52384045       0.14512047 </v>
   <v>       0.25000000       0.47615955       0.85487953 </v>
   <v>       0.25000000       0.02384045       0.35487953 </v>
   <v>       0.75000000       0.97615955       0.64512047 </v>
  </varray>
 </structure>
 <calculation>
  <scstep>
   <time name="total">   17.53   17.76</time>
   <energy>
    <i name="alphaZ">    195.34674365 </i>
    <i name="ewald">  -5851.63473896 </i>
    <i name="hartreedc">  -2436.24667162 </i>
    <i name="XCdc">    224.64731869 </i>
    <i name="pawpsdc">   8305.47088267 </i>
    <i name="pawaedc">  -8398.96257500 </i>
    <i name="eentropy">     -0.00239821 </i>
    <i name="bandstr">    281.32750879 </i>
    <i name="atom">   8600.94477988 </i>
    <i name="e_fr_energy">    920.89084989 </i>
    <i name="e_wo_entrp">    920.89324810 </i>
    <i name="e_0_energy">    920.89204899 </i>
   </energy>
  </scstep>
  <scstep>
   <time name="total">   16.21   16.45</time>
   <energy>
    <i name="e_fr_energy">    143.24326349 </i>
    <i name="e_wo_entrp">    143.24669910 </i>
    <i name="e_0_energy">    143.24498130 </i>
   </energy>
  </scstep>
  <scstep>
   <time name="total">   18.23   18.41</time>
   <energy>
    <i name="e_fr_energy">    -16.38209040 </i>
    <i name="e_wo_entrp">    -16.38209040 </i>
    <i name="e_0_energy">    -16.38209040 </i>
   </energy>
  </scstep>
  <scstep>
   <time name="total">   20.46   20.66</time>
   <energy>
    <i name="e_fr_energy">    -28.40923781 </i>
    <i name="e_wo_entrp">    -28.40923781 </i>
    <i name="e_0_energy">    -28.40923781 </i>
   </energy>
  </scstep>
  <scstep>
   <time name="total">   19.32   19.82</time>
   <energy>
    <i name="e_fr_energy">    -28.73764519 </i>
    <i name="e_wo_entrp">    -28.73764519 </i>
    <i name="e_0_energy">    -28.73764519 </i>
   </energy>
  </scstep>
  <scstep>
   <time name="total">   11.25   12.13</time>
   <energy>
    <i name="e_fr_energy">    -28.73764519 </i>
    <i name="e_wo_entrp">    -28.73764519 </i>
    <i name="e_0_energy">    -28.73764519 </i>
   </energy>
  </scstep>
  <scstep>
   <time name="total">   11.20   11.27</time>
   <energy>
    <i name="e_fr_energy">    -28.74661268 </i>
    <i name="e_wo_entrp">    -28.74661268 </i>
    <i name="e_0_energy">    -28.74661268 </i>
   </energy>
  </scstep>
  <scstep>
   <time name="total">   11.18   11.75</time>
   <energy>
    <i name="e_fr_energy">    -28.74944503 </i>
    <i name="e_wo_entrp">    -28.74944503 </i>
    <i name="e_0_energy">    -28.74944503 </i>
   </energy>
  </scstep>
  <scstep>
   <time name="total">   11.18   11.25</time>
   <energy>
    <i name="e_fr_energy">    -28.75058189 </i>
    <i name="e_wo_entrp">    -28.75058189 </i>
    <i name="e_0_energy">    -28.75058189 </i>
   </energy>
  </scstep>
  <scstep>
   <time name="total">   11.04   11.95</time>
   <energy>
    <i name="e_fr_energy">    -28.75085506 </i>
    <i name="e_wo_entrp">    -28.75085506 </i>
    <i name="e_0_energy">    -28.75085506 </i>
   </energy>
  </scstep>
  <scstep>
   <time name="total">   11.13   11.19</time>
   <energy>
    <i name="e_fr_energy">    -28.75092699 </i>
    <i name="e_wo_entrp">    -28.75092699 </i>
    <i name="e_0_energy">    -28.75092699 </i>
   </energy>
  </scstep>
  <scstep>
   <time name="total">   11.20   11.87</time>
   <energy>
    <i name="e_fr_energy">    -28.75094617 </i>
    <i name="e_wo_entrp">    -28.75094617 </i>
    <i name="e_0_energy">    -28.75094617 </i>
   </energy>
  </scstep>
  <scstep>
   <time name="total">   11.21   12.01</time>
   <energy>
    <i name="e_fr_energy">    -28.75095015 </i>
    <i name="e_wo_entrp">    -28.75095015 </i>
    <i name="e_0_energy">    -28.75095015 </i>
   </energy>
  </scstep>
  <scstep>
   <time name="total">   11.16   11.65</time>
   <energy>
    <i name="e_fr_energy">    -28.75095095 </i>
    <i name="e_wo_entrp">    -28.75095095 </i>
    <i name="e_0_energy">    -28.75095095 </i>
   </energy>
  </scstep>
  <scstep>
   <time name="total">   11.16   11.35</time>
   <energy>
    <i name="e_fr_energy">    -28.75095116 </i>
    <i name="e_wo_entrp">    -28.75095116 </i>
    <i name="e_0_energy">    -28.75095116 </i>
   </energy>
  </scstep>
  <scstep>
   <time name="total">   12.96   14.50</time>
   <energy>
    <i name="alphaZ">    195.34674365 </i>
    <i name="ewald">  -5851.63473896 </i>
    <i name="hartreedc">  -2436.24667162 </i>
    <i name="XCdc">    224.64731869 </i>
    <i name="pawpsdc">   8305.47088267 </i>
    <i name="pawaedc">  -8398.96257500 </i>
    <i name="eentropy">     -0.00000000 </i>
    <i name="bandstr">   -668.31669056 </i>
    <i name="atom">   8600.94477988 </i>
    <i name="e_fr_energy">    -28.75095125 </i>
    <i name="e_wo_entrp">    -28.75095125 </i>
    <i name="e_0_energy">    -28.75095125 </i>
   </energy>
  </scstep>
  <structure>
   <crystal>
    <varray name="basis" >
     <v>       4.20759812       0.00000000       0.00000000 </v>
     <v>       0.00000000       4.56286825       0.00000000 </v>
     <v>       0.00000000       0.00000000      11.78411723 </v>
    </varray>
    <i name="volume">    226.23991848 </i>
    <varray name="rec_basis" >
     <v>       0.23766528      -0.00000000       0.00000000 </v>
     <v>       0.00000000       0.21916039       0.00000000 </v>
     <v>      -0.00000000      -0.00000000       0.08485998 </v>
    </varray>
   </crystal>
   <varray name="positions" >
    <v>       0.25000000       0.11535153       0.12105944 </v>
    <v>       0.75000000       0.88464847       0.87894056 </v>
    <v>       0.75000000       0.61535153       0.37894056 </v>
    <v>       0.25000000       0.38464847       0.62105944 </v>
    <v>       0.75000000       0.52384045       0.14512047 </v>
    <v>       0.25000000       0.47615955       0.85487953 </v>
    <v>       0.25000000       0.02384045       0.35487953 </v>
    <v>       0.75000000       0.97615955       0.64512047 </v>
   </varray>
  </structure>
  <varray name="forces" >
   <v>      -0.00000000      -0.79949705       0.54675530 </v>
   <v>       0.00000000       0.79949705      -0.54675530 </v>
   <v>      -0.00000000      -0.79949705      -0.54675530 </v>
   <v>       0.00000000       0.79949705       0.54675530 </v>
   <v>       0.00000000       1.17560807      -2.08758711 </v>
   <v>      -0.00000000      -1.17560807       2.08758711 </v>
   <v>       0.00000000       1.17560807       2.08758711 </v>
   <v>      -0.00000000      -1.17560807      -2.08758711 </v>
  </varray>
  <varray name="stress" >
   <v>      79.17683168       0.00000000       0.00000000 </v>
   <v>       0.00000000      41.26199032       0.00000000 </v>
   <v>       0.00000000       0.00000000     106.82195706 </v>
  </varray>
  <energy>
   <i name="e_fr_energy">    -30.47060123 </i>
   <i name="e_wo_entrp">    -30.47060123 </i>
   <i name="e_0_energy">     -0.00000000 </i>
  </energy>
  <time name="totalsc">  242.59  250.51</time>
  <eigenvalues>
   <array>
    <dimension dim="1">band</dimension>
    <dimension dim="2">kpoint</dimension>
    <dimension dim="3">spin</dimension>
    <field>eigene</field>
    <field>occ</field>
    <set>
     <set comment="spin 1">
      <set comment="kpoint 1">
       <r>  -16.4816    1.0000 </r>
       <r>  -16.4738    1.0000 </r>
       <r>  -16.4702    1.0000 </r>
       <r>  -16.4691    1.0000 </r>
       <r>  -16.4673    1.0000 </r>
       <r>  -16.4659    1.0000 </r>
       <r>  -16.4655    1.0000 </r>
       <r>  -16.4624    1.0000 </r>
       <r>  -16.4520    1.0000 </r>
       <r>  -16.4507    1.0000 </r>
       <r>  -16.4450    1.0000 </r>
       <r>  -16.4394    1.0000 </r>
       <r>  -16.4384    1.0000 </r>
       <r>  -16.4371    1.0000 </r>
       <r>  -16.4196    1.0000 </r>
       <r>  -16.4186    1.0000 </r>
       <r>  -16.4121    1.0000 </r>
       <r>  -16.4119    1.0000 </r>
       <r>  -16.4108    1.0000 </r>
       <r>  -16.4040    1.0000 </r>
       <r>   -8.6387    1.0000 </r>
       <r>   -8.3616    1.0000 </r>
       <r>   -7.7088    1.0000 </r>
       <r>   -7.3319    1.0000 </r>
       <r>   -2.1996    1.0000 </r>
       <r>   -1.2953    1.0000 </r>
       <r>   -0.6278    1.0000 </r>
       <r>   -0.2629    1.0000 </r>
       <r>    0.2181    1.0000 </r>
       <r>    1.6602    1.0000 </r>
       <r>    1.7622    1.0000 </r>
       <r>    1.8258    1.0000 </r>
       <r>    2.1017    1.0000 </r>
       <r>    2.1740    1.0000 </r>
       <r>    2.7818    1.0000 </r>
       <r>    3.0717    1.0000 </r>
       <r>    3.3417    1.0000 </r>
       <r>    3.7279    1.0000 </r>
       <r>    4.1382    1.0000 </r>
       <r>    4.3667    1.0000 </r>
       <r>    5.6161    0.0000 </r>
       <r>    7.4894    0.0000 </r>
       <r>    7.7786    0.0000 </r>
       <r>    7.8575    0.0000 </r>
       <r>    8.0273    0.0000 </r>
       <r>    8.2431    0.0000 </r>
       <r>    8.7230    0.0000 </r>
       <r>    9.2064    0.0000 </r>
       <r>    9.3572    0.0000 </r>
       <r>    9.4755    0.0000 </r>
       <r>   10.0631    0.0000 </r>
       <r>   10.4434    0.0000 </r>
       <r>   10.7431    0.0000 </r>
       <r>   10.8548    0.0000 </r>
       <r>   11.1235    0.0000 </r>
       <r>   11.7517    0.0000 </r>
       <r>   11.7822    0.0000 </r>
       <r>   12.5646    0.0000 </r>
       <r>   13.1961    0.0000 </r>
       <r>   13.3945    0.0000 </r>
      </set>
      <set comment="kpoint 2">
       <r>  -16.4815    1.0000 </r>
       <r>  -16.4737    1.0000 </r>
       <r>  -16.4701    1.0000 </r>
       <r>  -16.4691    1.0000 </r>
       <r>  -16.4672    1.0000 </r>
       <r>  -16.4660    1.0000 </r>
       <r>  -16.4656    1.0000 </r>
       <r>  -16.4624    1.0000 </r>
       <r>  -16.4520    1.0000 </r>
       <r>  -16.4507    1.0000 </r>
       <r>  -16.4450    1.0000 </r>
       <r>  -16.4397    1.0000 </r>
       <r>  -16.4381    1.0000 </r>
       <r>  -16.4371    1.0000 </r>
       <r>  -16.4196    1.0000 </r>
       <r>  -16.4186    1.0000 </r>
       <r>  -16.4120    1.0000 </r>
       <r>  -16.4120    1.0000 </r>
       <r>  -16.4108    1.0000 </r>
       <r>  -16.4040    1.0000 </r>
       <r>   -8.6355    1.0000 </r>
       <r>   -8.3588    1.0000 </r>
       <r>   -7.7073    1.0000 </r>
       <r>   -7.3316    1.0000 </r>
       <r>   -2.2037    1.0000 </r>
       <r>   -1.3032    1.0000 </r>
       <r>   -0.6329    1.0000 </r>
       <r>   -0.2778    1.0000 </r>
       <r>    0.2195    1.0000 </r>
       <r>    1.6610    1.0000 </r>
       <r>    1.7258    1.0000 </r>
       <r>    1.8664    1.0000 </r>
       <r>    2.1036    1.0000 </r>
       <r>    2.1754    1.0000 </r>
       <r>    2.7821    1.0000 </r>
       <r>    3.0775    1.0000 </r>
       <r>    3.3390    1.0000 </r>
       <r>    3.7398    1.0000 </r>
       <r>    4.1386    1.0000 </r>
       <r>    4.3644    1.0000 </r>
       <r>    5.6209    0.0000 </r>
       <r>    7.4899    0.0000 </r>
       <r>    7.7919    0.0000 </r>
       <r>    7.8690    0.0000 </r>
       <r>    8.0009    0.0000 </r>
       <r>    8.2150    0.0000 </r>
       <r>    8.7210    0.0000 </r>
       <r>    9.1757    0.0000 </r>
       <r>    9.3257    0.0000 </r>
       <r>    9.5041    0.0000 </r>
       <r>   10.0608    0.0000 </r>
       <r>   10.4097    0.0000 </r>
       <r>   10.7636    0.0000 </r>
       <r>   10.8639    0.0000 </r>
       <r>   11.0891    0.0000 </r>
       <r>   11.7261    0.0000 </r>
       <r>   11.7591    0.0000 </r>
       <r>   12.5972    0.0000 </r>
       <r>   13.0389    0.0000 </r>
       <r>   13.3342    0.0000 </r>
      </set>
      <set comment="kpoint 3">
       <r>  -16.4816    1.0000 </r>
       <r>  -16.4738    1.0000 </r>
       <r>  -16.4701    1.0000 </r>
       <r>  -16.4691    1.0000 </r>
       <r>  -16.4673    1.0000 </r>
       <r>  -16.4660    1.0000 </r>
       <r>  -16.4656    1.0000 </r>
       <r>  -16.4624    1.0000 </r>
       <r>  -16.4520    1.0000 </r>
       <r>  -16.4507    1.0000 </r>
       <r>  -16.4450    1.0000 </r>
       <r>  -16.4395    1.0000 </r>
       <r>  -16.4383    1.0000 </r>
       <r>  -16.4371    1.0000 </r>
       <r>  -16.4196    1.0000 </r>
       <r>  -16.4186    1.0000 </r>
       <r>  -16.4121    1.0000 </r>
       <r>  -16.4119    1.0000 </r>
       <r>  -16.4108    1.0000 </r>
       <r>  -16.4040    1.0000 </r>
       <r>   -8.6379    1.0000 </r>
       <r>   -8.3609    1.0000 </r>
       <r>   -7.7084    1.0000 </r>
       <r>   -7.3318    1.0000 </r>
       <r>   -2.2006    1.0000 </r>
       <r>   -1.2973    1.0000 </r>
       <r>   -0.6291    1.0000 </r>
       <r>   -0.2666    1.0000 </r>
       <r>    0.2185    1.0000 </r>
       <r>    1.6605    1.0000 </r>
       <r>    1.7495    1.0000 </r>
       <r>    1.8395    1.0000 </r>
       <r>    2.1021    1.0000 </r>
       <r>    2.1743    1.0000 </r>
       <r>    2.7819    1.0000 </r>
       <r>    3.0732    1.0000 </r>
       <r>    3.3410    1.0000 </r>
       <r>    3.7309    1.0000 </r>
       <r>    4.1383    1.0000 </r>
       <r>    4.3662    1.0000 </r>
       <r>    5.6173    0.0000 </r>
       <r>    7.4896    0.0000 </r>
       <r>    7.7819    0.0000 </r>
       <r>    7.8604    0.0000 </r>
       <r>    8.0208    0.0000 </r>
       <r>    8.2356    0.0000 </r>
       <r>    8.7226    0.0000 </r>
       <r>    9.1983    0.0000 </r>
       <r>    9.3492    0.0000 </r>
       <r>    9.4834    0.0000 </r>
       <r>   10.0625    0.0000 </r>
       <r>   10.4345    0.0000 </r>
       <r>   10.7488    0.0000 </r>
       <r>   10.8571    0.0000 </r>
       <r>   11.1147    0.0000 </r>
       <r>   11.7450    0.0000 </r>
       <r>   11.7763    0.0000 </r>
       <r>   12.5688    0.0000 </r>
       <r>   13.0316    0.0000 </r>
       <r>   13.3426    0.0000 </r>
      </set>
      <set comment="kpoint 4">
       <r>  -16.4816    1.0000 </r>
       <r>  -16.4738    1.0000 </r>
       <r>  -16.4701    1.0000 </r>
       <r>  -16.4691    1.0000 </r>
       <r>  -16.4673    1.0000 </r>
       <r>  -16.4660    1.0000 </r>
       <r>  -16.4656    1.0000 </r>
       <r>  -16.4624    1.0000 </r>
       <r>  -16.4520    1.0000 </r>
       <r>  -16.4507    1.0000 </r>
       <r>  -16.4450    1.0000 </r>
       <r>  -16.4395    1.0000 </r>
       <r>  -16.4383    1.0000 </r>
       <r>  -16.4371    1.0000 </r>
       <r>  -16.4196    1.0000 </r>
       <r>  -16.4186    1.0000 </r>
       <r>  -16.4121    1.0000 </r>
       <r>  -16.4119    1.0000 </r>
       <r>  -16.4108    1.0000 </r>
       <r>  -16.4040    1.0000 </r>
       <r>   -8.6379    1.0000 </r>
       <r>   -8.3609    1.0000 </r>
       <r>   -7.7084    1.0000 </r>
       <r>   -7.3318    1.0000 </r>
       <r>   -2.2006    1.0000 </r>
       <r>   -1.2973    1.0000 </r>
       <r>   -0.6291    1.0000 </r>
       <r>   -0.2666    1.0000 </r>
       <r>    0.2185    1.0000 </r>
       <r>    1.6605    1.0000 </r>
       <r>    1.7495    1.0000 </r>
       <r>    1.8395    1.0000 </r>
       <r>    2.1021    1.0000 </r>
       <r>    2.1743    1.0000 </r>
       <r>    2.7819    1.0000 </r>
       <r>    3.0732    1.0000 </r>
       <r>    3.3410    1.0000 </r>
       <r>    3.7309    1.0000 </r>
       <r>    4.1383    1.0000 </r>
       <r>    4.3662    1.0000 </r>
       <r>    5.6173    0.0000 </r>
       <r>    7.4896    0.0000 </r>
       <r>    7.7819    0.0000 </r>
       <r>    7.8604    0.0000 </r>
       <r>    8.0208    0.0000 </r>
       <r>    8.2356    0.0000 </r>
       <r>    8.7226    0.0000 </r>
       <r>    9.1983    0.0000 </r>
       <r>    9.3492    0.0000 </r>
       <r>    9.4834    0.0000 </r>
       <r>   10.0625    0.0000 </r>
       <r>   10.4345    0.0000 </r>
       <r>   10.7488    0.0000 </r>
       <r>   10.8571    0.0000 </r>
       <r>   11.1147    0.0000 </r>
       <r>   11.7451    0.0000 </r>
       <r>   11.7763    0.0000 </r>
       <r>   12.5814    0.0000 </r>
       <r>   13.0419    0.0000 </r>
       <r>   13.4013    0.0000 </r>
      </set>
      <set comment="kpoint 5">
       <r>  -16.4815    1.0000 </r>
       <r>  -16.4737    1.0000 </r>
       <r>  -16.4701    1.0000 </r>
       <r>  -16.4691    1.0000 </r>
       <r>  -16.4672    1.0000 </r>
       <r>  -16.4660    1.0000 </r>
       <r>  -16.4656    1.0000 </r>
       <r>  -16.4624    1.0000 </r>
       <r>  -16.4520    1.0000 </r>
       <r>  -16.4507    1.0000 </r>
       <r>  -16.4450    1.0000 </r>
       <r>  -16.4397    1.0000 </r>
       <r>  -16.4381    1.0000 </r>
       <r>  -16.4371    1.0000 </r>
       <r>  -16.4196    1.0000 </r>
       <r>  -16.4186    1.0000 </r>
       <r>  -16.4120    1.0000 </r>
       <r>  -16.4120    1.0000 </r>
       <r>  -16.4108    1.0000 </r>
       <r>  -16.4040    1.0000 </r>
       <r>   -8.6355    1.0000 </r>
       <r>   -8.3588    1.0000 </r>
       <r>   -7.7073    1.0000 </r>
       <r>   -7.3316    1.0000 </r>
       <r>   -2.2037    1.0000 </r>
       <r>   -1.3032    1.0000 </r>
       <r>   -0.6329    1.0000 </r>
       <r>   -0.2778    1.0000 </r>
       <r>    0.2195    1.0000 </r>
       <r>    1.6610    1.0000 </r>
       <r>    1.7258    1.0000 </r>
       <r>    1.8664    1.0000 </r>
       <r>    2.1036    1.0000 </r>
       <r>    2.1754    1.0000 </r>
       <r>    2.7821    1.0000 </r>
       <r>    3.0775    1.0000 </r>
       <r>    3.3390    1.0000 </r>
       <r>    3.7398    1.0000 </r>
       <r>    4.1386    1.0000 </r>
       <r>    4.3644    1.0000 </r>
       <r>    5.6209    0.0000 </r>
       <r>    7.4899    0.0000 </r>
       <r>    7.7919    0.0000 </r>
       <r>    7.8690    0.0000 </r>
       <r>    8.0009    0.0000 </r>
       <r>    8.2150    0.0000 </r>
       <r>    8.7210    0.0000 </r>
       <r>    9.1757    0.0000 </r>
       <r>    9.3257    0.0000 </r>
       <r>    9.5041    0.0000 </r>
       <r>   10.0608    0.0000 </r>
       <r>   10.4097    0.0000 </r>
       <r>   10.7636    0.0000 </r>
       <r>   10.8639    0.0000 </r>
       <r>   11.0891    0.0000 </r>
       <r>   11.7261    0.0000 </r>
       <r>   11.7591    0.0000 </r>
       <r>   12.5882    0.0000 </r>
       <r>   13.0260    0.0000 </r>
       <r>   13.3959    0.0000 </r>
      </set>
      <set comment="kpoint 6">
       <r>  -16.4817    1.0000 </r>
       <r>  -16.4738    1.0000 </r>
       <r>  -16.4701    1.0000 </r>
       <r>  -16.4690    1.0000 </r>
       <r>  -16.4673    1.0000 </r>
       <r>  -16.4659    1.0000 </r>
       <r>  -16.4655    1.0000 </r>
       <r>  -16.4623    1.0000 </r>
       <r>  -16.4522    1.0000 </r>
       <r>  -16.4509    1.0000 </r>
       <r>  -16.4451    1.0000 </r>
       <r>  -16.4395    1.0000 </r>
       <r>  -16.4384    1.0000 </r>
       <r>  -16.4371    1.0000 </r>
       <r>  -16.4196    1.0000 </r>
       <r>  -16.4187    1.0000 </r>
       <r>  -16.4120    1.0000 </r>
       <r>  -16.4119    1.0000 </r>
       <r>  -16.4109    1.0000 </r>
       <r>  -16.4039    1.0000 </r>
       <r>   -8.6457    1.0000 </r>
       <r>   -8.3681    1.0000 </r>
       <r>   -7.7095    1.0000 </r>
       <r>   -7.3304    1.0000 </r>
       <r>   -2.1733    1.0000 </r>
       <r>   -1.2801    1.0000 </r>
       <r>   -0.5783    1.0000 </r>
       <r>   -0.2343    1.0000 </r>
       <r>    0.2136    1.0000 </r>
       <r>    1.6687    1.0000 </r>
       <r>    1.7513    1.0000 </r>
       <r>    1.7666    1.0000 </r>
       <r>    2.0505    1.0000 </r>
       <r>    2.1641    1.0000 </r>
       <r>    2.7751    1.0000 </r>
       <r>    3.0585    1.0000 </r>
       <r>    3.3380    1.0000 </r>
       <r>    3.6932    1.0000 </r>
       <r>    4.1642    1.0000 </r>
       <r>    4.3583    1.0000 </r>
       <r>    5.6165    0.0000 </r>
       <r>    7.5646    0.0000 </r>
       <r>    7.7762    0.0000 </r>
       <r>    7.8345    0.0000 </r>
       <r>    8.0331    0.0000 </r>
       <r>    8.2974    0.0000 </r>
       <r>    8.7024    0.0000 </r>
       <r>    9.2466    0.0000 </r>
       <r>    9.4105    0.0000 </r>
       <r>    9.5070    0.0000 </r>
       <r>   10.0669    0.0000 </r>
       <r>   10.4934    0.0000 </r>
       <r>   10.7969    0.0000 </r>
       <r>   10.8357    0.0000 </r>
       <r>   11.1331    0.0000 </r>
       <r>   11.7256    0.0000 </r>
       <r>   11.7841    0.0000 </r>
       <r>   12.5533    0.0000 </r>
       <r>   13.1050    0.0000 </r>
       <r>   13.3611    0.0000 </r>
      </set>
      <set comment="kpoint 7">
       <r>  -16.4817    1.0000 </r>
       <r>  -16.4738    1.0000 </r>
       <r>  -16.4701    1.0000 </r>
       <r>  -16.4691    1.0000 </r>
       <r>  -16.4673    1.0000 </r>
       <r>  -16.4659    1.0000 </r>
       <r>  -16.4655    1.0000 </r>
       <r>  -16.4624    1.0000 </r>
       <r>  -16.4521    1.0000 </r>
       <r>  -16.4508    1.0000 </r>
       <r>  -16.4451    1.0000 </r>
       <r>  -16.4395    1.0000 </r>
       <r>  -16.4384    1.0000 </r>
       <r>  -16.4371    1.0000 </r>
       <r>  -16.4196    1.0000 </r>
       <r>  -16.4186    1.0000 </r>
       <r>  -16.4120    1.0000 </r>
       <r>  -16.4119    1.0000 </r>
       <r>  -16.4108    1.0000 </r>
       <r>  -16.4039    1.0000 </r>
       <r>   -8.6429    1.0000 </r>
       <r>   -8.3655    1.0000 </r>
       <r>   -7.7092    1.0000 </r>
       <r>   -7.3310    1.0000 </r>
       <r>   -2.1839    1.0000 </r>
       <r>   -1.2862    1.0000 </r>
       <r>   -0.5981    1.0000 </r>
       <r>   -0.2461    1.0000 </r>
       <r>    0.2154    1.0000 </r>
       <r>    1.6629    1.0000 </r>
       <r>    1.7556    1.0000 </r>
       <r>    1.7927    1.0000 </r>
       <r>    2.0713    1.0000 </r>
       <r>    2.1680    1.0000 </r>
       <r>    2.7778    1.0000 </r>
       <r>    3.0637    1.0000 </r>
       <r>    3.3395    1.0000 </r>
       <r>    3.7072    1.0000 </r>
       <r>    4.1535    1.0000 </r>
       <r>    4.3621    1.0000 </r>
       <r>    5.6162    0.0000 </r>
       <r>    7.5336    0.0000 </r>
       <r>    7.7771    0.0000 </r>
       <r>    7.8439    0.0000 </r>
       <r>    8.0320    0.0000 </r>
       <r>    8.2754    0.0000 </r>
       <r>    8.7108    0.0000 </r>
       <r>    9.2305    0.0000 </r>
       <r>    9.3891    0.0000 </r>
       <r>    9.4934    0.0000 </r>
       <r>   10.0661    0.0000 </r>
       <r>   10.4732    0.0000 </r>
       <r>   10.7746    0.0000 </r>
       <r>   10.8430    0.0000 </r>
       <r>   11.1295    0.0000 </r>
       <r>   11.7365    0.0000 </r>
       <r>   11.7833    0.0000 </r>
       <r>   12.5686    0.0000 </r>
       <r>   13.0730    0.0000 </r>
       <r>   13.2880    0.0000 </r>
      </set>
      <set comment="kpoint 8">
       <r>  -16.4816    1.0000 </r>
       <r>  -16.4737    1.0000 </r>
       <r>  -16.4702    1.0000 </r>
       <r>  -16.4691    1.0000 </r>
       <r>  -16.4673    1.0000 </r>
       <r>  -16.4660    1.0000 </r>
       <r>  -16.4656    1.0000 </r>
       <r>  -16.4624    1.0000 </r>
       <r>  -16.4519    1.0000 </r>
       <r>  -16.4506    1.0000 </r>
       <r>  -16.4450    1.0000 </r>
       <r>  -16.4394    1.0000 </r>
       <r>  -16.4384    1.0000 </r>
       <r>  -16.4371    1.0000 </r>
       <r>  -16.4197    1.0000 </r>
       <r>  -16.4185    1.0000 </r>
       <r>  -16.4121    1.0000 </r>
       <r>  -16.4120    1.0000 </r>
       <r>  -16.4108    1.0000 </r>
       <r>  -16.4040    1.0000 </r>
       <r>   -8.6332    1.0000 </r>
       <r>   -8.3565    1.0000 </r>
       <r>   -7.7083    1.0000 </r>
       <r>   -7.3332    1.0000 </r>
       <r>   -2.2201    1.0000 </r>
       <r>   -1.3073    1.0000 </r>
       <r>   -0.6671    1.0000 </r>
       <r>   -0.2840    1.0000 </r>
       <r>    0.2217    1.0000 </r>
       <r>    1.6618    1.0000 </r>
       <r>    1.7709    1.0000 </r>
       <r>    1.8643    1.0000 </r>
       <r>    2.1406    1.0000 </r>
       <r>    2.1820    1.0000 </r>
       <r>    2.7872    1.0000 </r>
       <r>    3.0830    1.0000 </r>
       <r>    3.3446    1.0000 </r>
       <r>    3.7551    1.0000 </r>
       <r>    4.1190    1.0000 </r>
       <r>    4.3717    1.0000 </r>
       <r>    5.6165    0.0000 </r>
       <r>    7.4341    0.0000 </r>
       <r>    7.7807    0.0000 </r>
       <r>    7.8748    0.0000 </r>
       <r>    8.0168    0.0000 </r>
       <r>    8.2011    0.0000 </r>
       <r>    8.7390    0.0000 </r>
       <r>    9.1747    0.0000 </r>
       <r>    9.3153    0.0000 </r>
       <r>    9.4559    0.0000 </r>
       <r>   10.0564    0.0000 </r>
       <r>   10.4046    0.0000 </r>
       <r>   10.7043    0.0000 </r>
       <r>   10.8718    0.0000 </r>
       <r>   11.1150    0.0000 </r>
       <r>   11.7709    0.0000 </r>
       <r>   11.7809    0.0000 </r>
       <r>   12.5706    0.0000 </r>
       <r>   12.9965    0.0000 </r>
       <r>   13.3113    0.0000 </r>
      </set>
      <set comment="kpoint 9">
       <r>  -16.4815    1.0000 </r>
       <r>  -16.4737    1.0000 </r>
       <r>  -16.4702    1.0000 </r>
       <r>  -16.4692    1.0000 </r>
       <r>  -16.4673    1.0000 </r>
       <r>  -16.4661    1.0000 </r>
       <r>  -16.4656    1.0000 </r>
       <r>  -16.4625    1.0000 </r>
       <r>  -16.4518    1.0000 </r>
       <r>  -16.4504    1.0000 </r>
       <r>  -16.4450    1.0000 </r>
       <r>  -16.4394    1.0000 </r>
       <r>  -16.4384    1.0000 </r>
       <r>  -16.4371    1.0000 </r>
       <r>  -16.4197    1.0000 </r>
       <r>  -16.4185    1.0000 </r>
       <r>  -16.4122    1.0000 </r>
       <r>  -16.4120    1.0000 </r>
       <r>  -16.4108    1.0000 </r>
       <r>  -16.4040    1.0000 </r>
       <r>   -8.6262    1.0000 </r>
       <r>   -8.3501    1.0000 </r>
       <r>   -7.7077    1.0000 </r>
       <r>   -7.3348    1.0000 </r>
       <r>   -2.2449    1.0000 </r>
       <r>   -1.3223    1.0000 </r>
       <r>   -0.7153    1.0000 </r>
       <r>   -0.3089    1.0000 </r>
       <r>    0.2263    1.0000 </r>
       <r>    1.6682    1.0000 </r>
       <r>    1.7817    1.0000 </r>
       <r>    1.9071    1.0000 </r>
       <r>    2.1867    1.0000 </r>
       <r>    2.1919    1.0000 </r>
       <r>    2.7939    1.0000 </r>
       <r>    3.0979    1.0000 </r>
       <r>    3.3482    1.0000 </r>
       <r>    3.7883    1.0000 </r>
       <r>    4.0963    1.0000 </r>
       <r>    4.3762    1.0000 </r>
       <r>    5.6178    0.0000 </r>
       <r>    7.3696    0.0000 </r>
       <r>    7.7831    0.0000 </r>
       <r>    7.8952    0.0000 </r>
       <r>    7.9983    0.0000 </r>
       <r>    8.1505    0.0000 </r>
       <r>    8.7582    0.0000 </r>
       <r>    9.1358    0.0000 </r>
       <r>    9.2640    0.0000 </r>
       <r>    9.4369    0.0000 </r>
       <r>   10.0448    0.0000 </r>
       <r>   10.3576    0.0000 </r>
       <r>   10.6605    0.0000 </r>
       <r>   10.8947    0.0000 </r>
       <r>   11.1042    0.0000 </r>
       <r>   11.7796    0.0000 </r>
       <r>   11.7932    0.0000 </r>
       <r>   12.5836    0.0000 </r>
       <r>   12.9565    0.0000 </r>
       <r>   13.3599    0.0000 </r>
      </set>
      <set comment="kpoint 10">
       <r>  -16.4815    1.0000 </r>
       <r>  -16.4739    1.0000 </r>
       <r>  -16.4701    1.0000 </r>
       <r>  -16.4691    1.0000 </r>
       <r>  -16.4673    1.0000 </r>
       <r>  -16.4662    1.0000 </r>
       <r>  -16.4653    1.0000 </r>
       <r>  -16.4624    1.0000 </r>
       <r>  -16.4520    1.0000 </r>
       <r>  -16.4507    1.0000 </r>
       <r>  -16.4450    1.0000 </r>
       <r>  -16.4394    1.0000 </r>
       <r>  -16.4385    1.0000 </r>
       <r>  -16.4371    1.0000 </r>
       <r>  -16.4196    1.0000 </r>
       <r>  -16.4186    1.0000 </r>
       <r>  -16.4121    1.0000 </r>
       <r>  -16.4119    1.0000 </r>
       <r>  -16.4107    1.0000 </r>
       <r>  -16.4040    1.0000 </r>
       <r>   -8.6362    1.0000 </r>
       <r>   -8.3669    1.0000 </r>
       <r>   -7.7023    1.0000 </r>
       <r>   -7.3356    1.0000 </r>
       <r>   -2.1935    1.0000 </r>
       <r>   -1.3246    1.0000 </r>
       <r>   -0.6052    1.0000 </r>
       <r>   -0.2636    1.0000 </r>
       <r>    0.2348    1.0000 </r>
       <r>    1.6468    1.0000 </r>
       <r>    1.7655    1.0000 </r>
       <r>    1.8241    1.0000 </r>
       <r>    2.1144    1.0000 </r>
       <r>    2.1646    1.0000 </r>
       <r>    2.7930    1.0000 </r>
       <r>    3.0636    1.0000 </r>
       <r>    3.3364    1.0000 </r>
       <r>    3.6774    1.0000 </r>
       <r>    4.1447    1.0000 </r>
       <r>    4.3666    1.0000 </r>
       <r>    5.6827    0.0000 </r>
       <r>    7.4830    0.0000 </r>
       <r>    7.7597    0.0000 </r>
       <r>    7.8594    0.0000 </r>
       <r>    8.0522    0.0000 </r>
       <r>    8.2487    0.0000 </r>
       <r>    8.7162    0.0000 </r>
       <r>    9.1354    0.0000 </r>
       <r>    9.4298    0.0000 </r>
       <r>    9.4842    0.0000 </r>
       <r>   10.0308    0.0000 </r>
       <r>   10.4360    0.0000 </r>
       <r>   10.7376    0.0000 </r>
       <r>   10.8290    0.0000 </r>
       <r>   11.1299    0.0000 </r>
       <r>   11.7433    0.0000 </r>
       <r>   11.7968    0.0000 </r>
       <r>   12.5435    0.0000 </r>
       <r>   13.1209    0.0000 </r>
       <r>   13.3510    0.0000 </r>
      </set>
      <set comment="kpoint 11">
       <r>  -16.4816    1.0000 </r>
       <r>  -16.4738    1.0000 </r>
       <r>  -16.4701    1.0000 </r>
       <r>  -16.4691    1.0000 </r>
       <r>  -16.4673    1.0000 </r>
       <r>  -16.4660    1.0000 </r>
       <r>  -16.4655    1.0000 </r>
       <r>  -16.4624    1.0000 </r>
       <r>  -16.4520    1.0000 </r>
       <r>  -16.4507    1.0000 </r>
       <r>  -16.4450    1.0000 </r>
       <r>  -16.4394    1.0000 </r>
       <r>  -16.4384    1.0000 </r>
       <r>  -16.4371    1.0000 </r>
       <r>  -16.4196    1.0000 </r>
       <r>  -16.4186    1.0000 </r>
       <r>  -16.4121    1.0000 </r>
       <r>  -16.4119    1.0000 </r>
       <r>  -16.4108    1.0000 </r>
       <r>  -16.4040    1.0000 </r>
       <r>   -8.6381    1.0000 </r>
       <r>   -8.3630    1.0000 </r>
       <r>   -7.7072    1.0000 </r>
       <r>   -7.3329    1.0000 </r>
       <r>   -2.1981    1.0000 </r>
       <r>   -1.3029    1.0000 </r>
       <r>   -0.6218    1.0000 </r>
       <r>   -0.2631    1.0000 </r>
       <r>    0.2223    1.0000 </r>
       <r>    1.6570    1.0000 </r>
       <r>    1.7630    1.0000 </r>
       <r>    1.8251    1.0000 </r>
       <r>    2.1050    1.0000 </r>
       <r>    2.1716    1.0000 </r>
       <r>    2.7847    1.0000 </r>
       <r>    3.0697    1.0000 </r>
       <r>    3.3404    1.0000 </r>
       <r>    3.7149    1.0000 </r>
       <r>    4.1399    1.0000 </r>
       <r>    4.3667    1.0000 </r>
       <r>    5.6331    0.0000 </r>
       <r>    7.4877    0.0000 </r>
       <r>    7.7738    0.0000 </r>
       <r>    7.8577    0.0000 </r>
       <r>    8.0341    0.0000 </r>
       <r>    8.2445    0.0000 </r>
       <r>    8.7213    0.0000 </r>
       <r>    9.1835    0.0000 </r>
       <r>    9.3805    0.0000 </r>
       <r>    9.4778    0.0000 </r>
       <r>   10.0549    0.0000 </r>
       <r>   10.4415    0.0000 </r>
       <r>   10.7419    0.0000 </r>
       <r>   10.8480    0.0000 </r>
       <r>   11.1252    0.0000 </r>
       <r>   11.7495    0.0000 </r>
       <r>   11.7858    0.0000 </r>
       <r>   12.5526    0.0000 </r>
       <r>   13.0592    0.0000 </r>
       <r>   13.4663    0.0000 </r>
      </set>
      <set comment="kpoint 12">
       <r>  -16.4816    1.0000 </r>
       <r>  -16.4738    1.0000 </r>
       <r>  -16.4701    1.0000 </r>
       <r>  -16.4691    1.0000 </r>
       <r>  -16.4673    1.0000 </r>
       <r>  -16.4660    1.0000 </r>
       <r>  -16.4655    1.0000 </r>
       <r>  -16.4624    1.0000 </r>
       <r>  -16.4520    1.0000 </r>
       <r>  -16.4507    1.0000 </r>
       <r>  -16.4450    1.0000 </r>
       <r>  -16.4394    1.0000 </r>
       <r>  -16.4384    1.0000 </r>
       <r>  -16.4371    1.0000 </r>
       <r>  -16.4196    1.0000 </r>
       <r>  -16.4186    1.0000 </r>
       <r>  -16.4121    1.0000 </r>
       <r>  -16.4119    1.0000 </r>
       <r>  -16.4108    1.0000 </r>
       <r>  -16.4040    1.0000 </r>
       <r>   -8.6381    1.0000 </r>
       <r>   -8.3630    1.0000 </r>
       <r>   -7.7072    1.0000 </r>
       <r>   -7.3329    1.0000 </r>
       <r>   -2.1981    1.0000 </r>
       <r>   -1.3029    1.0000 </r>
       <r>   -0.6218    1.0000 </r>
       <r>   -0.2631    1.0000 </r>
       <r>    0.2223    1.0000 </r>
       <r>    1.6570    1.0000 </r>
       <r>    1.7630    1.0000 </r>
       <r>    1.8251    1.0000 </r>
       <r>    2.1050    1.0000 </r>
       <r>    2.1716    1.0000 </r>
       <r>    2.7847    1.0000 </r>
       <r>    3.0697    1.0000 </r>
       <r>    3.3404    1.0000 </r>
       <r>    3.7149    1.0000 </r>
       <r>    4.1399    1.0000 </r>
       <r>    4.3667    1.0000 </r>
       <r>    5.6331    0.0000 </r>
       <r>    7.4877    0.0000 </r>
       <r>    7.7738    0.0000 </r>
       <r>    7.8577    0.0000 </r>
       <r>    8.0341    0.0000 </r>
       <r>    8.2445    0.0000 </r>
       <r>    8.7213    0.0000 </r>
       <r>    9.1835    0.0000 </r>
       <r>    9.3805    0.0000 </r>
       <r>    9.4778    0.0000 </r>
       <r>   10.0549    0.0000 </r>
       <r>   10.4415    0.0000 </r>
       <r>   10.7419    0.0000 </r>
       <r>   10.8480    0.0000 </r>
       <r>   11.1252    0.0000 </r>
       <r>   11.7495    0.0000 </r>
       <r>   11.7858    0.0000 </r>
       <r>   12.5521    0.0000 </r>
       <r>   13.0914    0.0000 </r>
       <r>   13.6138    0.0000 </r>
      </set>
      <set comment="kpoint 13">
       <r>  -16.4815    1.0000 </r>
       <r>  -16.4739    1.0000 </r>
       <r>  -16.4701    1.0000 </r>
       <r>  -16.4691    1.0000 </r>
       <r>  -16.4673    1.0000 </r>
       <r>  -16.4662    1.0000 </r>
       <r>  -16.4653    1.0000 </r>
       <r>  -16.4624    1.0000 </r>
       <r>  -16.4520    1.0000 </r>
       <r>  -16.4507    1.0000 </r>
       <r>  -16.4450    1.0000 </r>
       <r>  -16.4394    1.0000 </r>
       <r>  -16.4385    1.0000 </r>
       <r>  -16.4371    1.0000 </r>
       <r>  -16.4196    1.0000 </r>
       <r>  -16.4186    1.0000 </r>
       <r>  -16.4121    1.0000 </r>
       <r>  -16.4119    1.0000 </r>
       <r>  -16.4107    1.0000 </r>
       <r>  -16.4040    1.0000 </r>
       <r>   -8.6362    1.0000 </r>
       <r>   -8.3669    1.0000 </r>
       <r>   -7.7023    1.0000 </r>
       <r>   -7.3356    1.0000 </r>
       <r>   -2.1935    1.0000 </r>
       <r>   -1.3246    1.0000 </r>
       <r>   -0.6052    1.0000 </r>
       <r>   -0.2636    1.0000 </r>
       <r>    0.2348    1.0000 </r>
       <r>    1.6468    1.0000 </r>
       <r>    1.7655    1.0000 </r>
       <r>    1.8241    1.0000 </r>
       <r>    2.1144    1.0000 </r>
       <r>    2.1646    1.0000 </r>
       <r>    2.7930    1.0000 </r>
       <r>    3.0636    1.0000 </r>
       <r>    3.3364    1.0000 </r>
       <r>    3.6774    1.0000 </r>
       <r>    4.1447    1.0000 </r>
       <r>    4.3666    1.0000 </r>
       <r>    5.6827    0.0000 </r>
       <r>    7.4830    0.0000 </r>
       <r>    7.7597    0.0000 </r>
       <r>    7.8594    0.0000 </r>
       <r>    8.0522    0.0000 </r>
       <r>    8.2487    0.0000 </r>
       <r>    8.7162    0.0000 </r>
       <r>    9.1354    0.0000 </r>
       <r>    9.4298    0.0000 </r>
       <r>    9.4842    0.0000 </r>
       <r>   10.0308    0.0000 </r>
       <r>   10.4360    0.0000 </r>
       <r>   10.7376    0.0000 </r>
       <r>   10.8290    0.0000 </r>
       <r>   11.1299    0.0000 </r>
       <r>   11.7433    0.0000 </r>
       <r>   11.7966    0.0000 </r>
       <r>   12.5273    0.0000 </r>
       <r>   13.0769    0.0000 </r>
       <r>   13.2742    0.0000 </r>
      </set>
      <set comment="kpoint 14">
       <r>  -16.4816    1.0000 </r>
       <r>  -16.4738    1.0000 </r>
       <r>  -16.4700    1.0000 </r>
       <r>  -16.4691    1.0000 </r>
       <r>  -16.4672    1.0000 </r>
       <r>  -16.4659    1.0000 </r>
       <r>  -16.4656    1.0000 </r>
       <r>  -16.4624    1.0000 </r>
       <r>  -16.4521    1.0000 </r>
       <r>  -16.4509    1.0000 </r>
       <r>  -16.4451    1.0000 </r>
       <r>  -16.4398    1.0000 </r>
       <r>  -16.4381    1.0000 </r>
       <r>  -16.4371    1.0000 </r>
       <r>  -16.4195    1.0000 </r>
       <r>  -16.4187    1.0000 </r>
       <r>  -16.4120    1.0000 </r>
       <r>  -16.4120    1.0000 </r>
       <r>  -16.4108    1.0000 </r>
       <r>  -16.4039    1.0000 </r>
       <r>   -8.6424    1.0000 </r>
       <r>   -8.3652    1.0000 </r>
       <r>   -7.7079    1.0000 </r>
       <r>   -7.3301    1.0000 </r>
       <r>   -2.1778    1.0000 </r>
       <r>   -1.2885    1.0000 </r>
       <r>   -0.5834    1.0000 </r>
       <r>   -0.2507    1.0000 </r>
       <r>    0.2150    1.0000 </r>
       <r>    1.6730    1.0000 </r>
       <r>    1.7116    1.0000 </r>
       <r>    1.8113    1.0000 </r>
       <r>    2.0538    1.0000 </r>
       <r>    2.1620    1.0000 </r>
       <r>    2.7796    1.0000 </r>
       <r>    3.0615    1.0000 </r>
       <r>    3.3357    1.0000 </r>
       <r>    3.7036    1.0000 </r>
       <r>    4.1646    1.0000 </r>
       <r>    4.3558    1.0000 </r>
       <r>    5.6212    0.0000 </r>
       <r>    7.5692    0.0000 </r>
       <r>    7.7903    0.0000 </r>
       <r>    7.8463    0.0000 </r>
       <r>    7.9947    0.0000 </r>
       <r>    8.2818    0.0000 </r>
       <r>    8.7021    0.0000 </r>
       <r>    9.2105    0.0000 </r>
       <r>    9.3797    0.0000 </r>
       <r>    9.5265    0.0000 </r>
       <r>   10.0701    0.0000 </r>
       <r>   10.4681    0.0000 </r>
       <r>   10.8002    0.0000 </r>
       <r>   10.8438    0.0000 </r>
       <r>   11.1001    0.0000 </r>
       <r>   11.6955    0.0000 </r>
       <r>   11.7568    0.0000 </r>
       <r>   12.5867    0.0000 </r>
       <r>   13.0705    0.0000 </r>
       <r>   13.4506    0.0000 </r>
      </set>
      <set comment="kpoint 15">
       <r>  -16.4817    1.0000 </r>
       <r>  -16.4738    1.0000 </r>
       <r>  -16.4701    1.0000 </r>
       <r>  -16.4690    1.0000 </r>
       <r>  -16.4673    1.0000 </r>
       <r>  -16.4659    1.0000 </r>
       <r>  -16.4655    1.0000 </r>
       <r>  -16.4624    1.0000 </r>
       <r>  -16.4522    1.0000 </r>
       <r>  -16.4509    1.0000 </r>
       <r>  -16.4451    1.0000 </r>
       <r>  -16.4396    1.0000 </r>
       <r>  -16.4383    1.0000 </r>
       <r>  -16.4371    1.0000 </r>
       <r>  -16.4196    1.0000 </r>
       <r>  -16.4187    1.0000 </r>
       <r>  -16.4120    1.0000 </r>
       <r>  -16.4119    1.0000 </r>
       <r>  -16.4108    1.0000 </r>
       <r>  -16.4039    1.0000 </r>
       <r>   -8.6448    1.0000 </r>
       <r>   -8.3674    1.0000 </r>
       <r>   -7.7091    1.0000 </r>
       <r>   -7.3303    1.0000 </r>
       <r>   -2.1744    1.0000 </r>
       <r>   -1.2822    1.0000 </r>
       <r>   -0.5795    1.0000 </r>
       <r>   -0.2384    1.0000 </r>
       <r>    0.2139    1.0000 </r>
       <r>    1.6698    1.0000 </r>
       <r>    1.7336    1.0000 </r>
       <r>    1.7855    1.0000 </r>
       <r>    2.0513    1.0000 </r>
       <r>    2.1636    1.0000 </r>
       <r>    2.7762    1.0000 </r>
       <r>    3.0593    1.0000 </r>
       <r>    3.3374    1.0000 </r>
       <r>    3.6958    1.0000 </r>
       <r>    4.1643    1.0000 </r>
       <r>    4.3577    1.0000 </r>
       <r>    5.6177    0.0000 </r>
       <r>    7.5658    0.0000 </r>
       <r>    7.7798    0.0000 </r>
       <r>    7.8375    0.0000 </r>
       <r>    8.0235    0.0000 </r>
       <r>    8.2932    0.0000 </r>
       <r>    8.7023    0.0000 </r>
       <r>    9.2373    0.0000 </r>
       <r>    9.4027    0.0000 </r>
       <r>    9.5122    0.0000 </r>
       <r>   10.0679    0.0000 </r>
       <r>   10.4870    0.0000 </r>
       <r>   10.7979    0.0000 </r>
       <r>   10.8377    0.0000 </r>
       <r>   11.1247    0.0000 </r>
       <r>   11.7177    0.0000 </r>
       <r>   11.7771    0.0000 </r>
       <r>   12.5588    0.0000 </r>
       <r>   13.0725    0.0000 </r>
       <r>   13.3132    0.0000 </r>
      </set>
      <set comment="kpoint 16">
       <r>  -16.4817    1.0000 </r>
       <r>  -16.4738    1.0000 </r>
       <r>  -16.4701    1.0000 </r>
       <r>  -16.4690    1.0000 </r>
       <r>  -16.4673    1.0000 </r>
       <r>  -16.4659    1.0000 </r>
       <r>  -16.4655    1.0000 </r>
       <r>  -16.4624    1.0000 </r>
       <r>  -16.4522    1.0000 </r>
       <r>  -16.4509    1.0000 </r>
       <r>  -16.4451    1.0000 </r>
       <r>  -16.4396    1.0000 </r>
       <r>  -16.4383    1.0000 </r>
       <r>  -16.4371    1.0000 </r>
       <r>  -16.4196    1.0000 </r>
       <r>  -16.4187    1.0000 </r>
       <r>  -16.4120    1.0000 </r>
       <r>  -16.4119    1.0000 </r>
       <r>  -16.4108    1.0000 </r>
       <r>  -16.4039    1.0000 </r>
       <r>   -8.6448    1.0000 </r>
       <r>   -8.3674    1.0000 </r>
       <r>   -7.7091    1.0000 </r>
       <r>   -7.3303    1.0000 </r>
       <r>   -2.1744    1.0000 </r>
       <r>   -1.2822    1.0000 </r>
       <r>   -0.5795    1.0000 </r>
       <r>   -0.2384    1.0000 </r>
       <r>    0.2139    1.0000 </r>
       <r>    1.6698    1.0000 </r>
       <r>    1.7336    1.0000 </r>
       <r>    1.7855    1.0000 </r>
       <r>    2.0513    1.0000 </r>
       <r>    2.1636    1.0000 </r>
       <r>    2.7762    1.0000 </r>
       <r>    3.0593    1.0000 </r>
       <r>    3.3374    1.0000 </r>
       <r>    3.6958    1.0000 </r>
       <r>    4.1643    1.0000 </r>
       <r>    4.3577    1.0000 </r>
       <r>    5.6177    0.0000 </r>
       <r>    7.5658    0.0000 </r>
       <r>    7.7798    0.0000 </r>
       <r>    7.8375    0.0000 </r>
       <r>    8.0235    0.0000 </r>
       <r>    8.2932    0.0000 </r>
       <r>    8.7023    0.0000 </r>
       <r>    9.2373    0.0000 </r>
       <r>    9.4027    0.0000 </r>
       <r>    9.5122    0.0000 </r>
       <r>   10.0679    0.0000 </r>
       <r>   10.4870    0.0000 </r>
       <r>   10.7979    0.0000 </r>
       <r>   10.8377    0.0000 </r>
       <r>   11.1247    0.0000 </r>
       <r>   11.7177    0.0000 </r>
       <r>   11.7771    0.0000 </r>
       <r>   12.5585    0.0000 </r>
       <r>   13.0846    0.0000 </r>
       <r>   13.2933    0.0000 </r>
      </set>
      <set comment="kpoint 17">
       <r>  -16.4816    1.0000 </r>
       <r>  -16.4738    1.0000 </r>
       <r>  -16.4700    1.0000 </r>
       <r>  -16.4691    1.0000 </r>
       <r>  -16.4672    1.0000 </r>
       <r>  -16.4659    1.0000 </r>
       <r>  -16.4656    1.0000 </r>
       <r>  -16.4624    1.0000 </r>
       <r>  -16.4521    1.0000 </r>
       <r>  -16.4509    1.0000 </r>
       <r>  -16.4451    1.0000 </r>
       <r>  -16.4398    1.0000 </r>
       <r>  -16.4381    1.0000 </r>
       <r>  -16.4371    1.0000 </r>
       <r>  -16.4195    1.0000 </r>
       <r>  -16.4187    1.0000 </r>
       <r>  -16.4120    1.0000 </r>
       <r>  -16.4120    1.0000 </r>
       <r>  -16.4108    1.0000 </r>
       <r>  -16.4039    1.0000 </r>
       <r>   -8.6424    1.0000 </r>
       <r>   -8.3652    1.0000 </r>
       <r>   -7.7079    1.0000 </r>
       <r>   -7.3301    1.0000 </r>
       <r>   -2.1778    1.0000 </r>
       <r>   -1.2885    1.0000 </r>
       <r>   -0.5834    1.0000 </r>
       <r>   -0.2507    1.0000 </r>
       <r>    0.2150    1.0000 </r>
       <r>    1.6730    1.0000 </r>
       <r>    1.7116    1.0000 </r>
       <r>    1.8113    1.0000 </r>
       <r>    2.0538    1.0000 </r>
       <r>    2.1620    1.0000 </r>
       <r>    2.7796    1.0000 </r>
       <r>    3.0615    1.0000 </r>
       <r>    3.3357    1.0000 </r>
       <r>    3.7036    1.0000 </r>
       <r>    4.1646    1.0000 </r>
       <r>    4.3558    1.0000 </r>
       <r>    5.6212    0.0000 </r>
       <r>    7.5692    0.0000 </r>
       <r>    7.7903    0.0000 </r>
       <r>    7.8463    0.0000 </r>
       <r>    7.9947    0.0000 </r>
       <r>    8.2818    0.0000 </r>
       <r>    8.7021    0.0000 </r>
       <r>    9.2105    0.0000 </r>
       <r>    9.3797    0.0000 </r>
       <r>    9.5265    0.0000 </r>
       <r>   10.0701    0.0000 </r>
       <r>   10.4681    0.0000 </r>
       <r>   10.8002    0.0000 </r>
       <r>   10.8438    0.0000 </r>
       <r>   11.1001    0.0000 </r>
       <r>   11.6955    0.0000 </r>
       <r>   11.7568    0.0000 </r>
       <r>   12.5790    0.0000 </r>
       <r>   13.0722    0.0000 </r>
       <r>   13.3124    0.0000 </r>
      </set>
      <set comment="kpoint 18">
       <r>  -16.4816    1.0000 </r>
       <r>  -16.4737    1.0000 </r>
       <r>  -16.4700    1.0000 </r>
       <r>  -16.4691    1.0000 </r>
       <r>  -16.4672    1.0000 </r>
       <r>  -16.4659    1.0000 </r>
       <r>  -16.4656    1.0000 </r>
       <r>  -16.4624    1.0000 </r>
       <r>  -16.4521    1.0000 </r>
       <r>  -16.4508    1.0000 </r>
       <r>  -16.4450    1.0000 </r>
       <r>  -16.4398    1.0000 </r>
       <r>  -16.4381    1.0000 </r>
       <r>  -16.4371    1.0000 </r>
       <r>  -16.4195    1.0000 </r>
       <r>  -16.4187    1.0000 </r>
       <r>  -16.4120    1.0000 </r>
       <r>  -16.4120    1.0000 </r>
       <r>  -16.4108    1.0000 </r>
       <r>  -16.4040    1.0000 </r>
       <r>   -8.6396    1.0000 </r>
       <r>   -8.3627    1.0000 </r>
       <r>   -7.7077    1.0000 </r>
       <r>   -7.3307    1.0000 </r>
       <r>   -2.1882    1.0000 </r>
       <r>   -1.2944    1.0000 </r>
       <r>   -0.6032    1.0000 </r>
       <r>   -0.2618    1.0000 </r>
       <r>    0.2168    1.0000 </r>
       <r>    1.6661    1.0000 </r>
       <r>    1.7177    1.0000 </r>
       <r>    1.8350    1.0000 </r>
       <r>    2.0740    1.0000 </r>
       <r>    2.1673    1.0000 </r>
       <r>    2.7805    1.0000 </r>
       <r>    3.0679    1.0000 </r>
       <r>    3.3370    1.0000 </r>
       <r>    3.7182    1.0000 </r>
       <r>    4.1539    1.0000 </r>
       <r>    4.3596    1.0000 </r>
       <r>    5.6209    0.0000 </r>
       <r>    7.5362    0.0000 </r>
       <r>    7.7908    0.0000 </r>
       <r>    7.8556    0.0000 </r>
       <r>    7.9988    0.0000 </r>
       <r>    8.2545    0.0000 </r>
       <r>    8.7098    0.0000 </r>
       <r>    9.1966    0.0000 </r>
       <r>    9.3579    0.0000 </r>
       <r>    9.5173    0.0000 </r>
       <r>   10.0666    0.0000 </r>
       <r>   10.4442    0.0000 </r>
       <r>   10.7856    0.0000 </r>
       <r>   10.8515    0.0000 </r>
       <r>   11.0956    0.0000 </r>
       <r>   11.7081    0.0000 </r>
       <r>   11.7578    0.0000 </r>
       <r>   12.6004    0.0000 </r>
       <r>   13.1277    0.0000 </r>
       <r>   13.3898    0.0000 </r>
      </set>
      <set comment="kpoint 19">
       <r>  -16.4816    1.0000 </r>
       <r>  -16.4738    1.0000 </r>
       <r>  -16.4701    1.0000 </r>
       <r>  -16.4691    1.0000 </r>
       <r>  -16.4673    1.0000 </r>
       <r>  -16.4659    1.0000 </r>
       <r>  -16.4655    1.0000 </r>
       <r>  -16.4624    1.0000 </r>
       <r>  -16.4521    1.0000 </r>
       <r>  -16.4508    1.0000 </r>
       <r>  -16.4451    1.0000 </r>
       <r>  -16.4396    1.0000 </r>
       <r>  -16.4383    1.0000 </r>
       <r>  -16.4371    1.0000 </r>
       <r>  -16.4196    1.0000 </r>
       <r>  -16.4186    1.0000 </r>
       <r>  -16.4120    1.0000 </r>
       <r>  -16.4119    1.0000 </r>
       <r>  -16.4108    1.0000 </r>
       <r>  -16.4039    1.0000 </r>
       <r>   -8.6421    1.0000 </r>
       <r>   -8.3648    1.0000 </r>
       <r>   -7.7088    1.0000 </r>
       <r>   -7.3309    1.0000 </r>
       <r>   -2.1850    1.0000 </r>
       <r>   -1.2882    1.0000 </r>
       <r>   -0.5993    1.0000 </r>
       <r>   -0.2500    1.0000 </r>
       <r>    0.2158    1.0000 </r>
       <r>    1.6638    1.0000 </r>
       <r>    1.7411    1.0000 </r>
       <r>    1.8083    1.0000 </r>
       <r>    2.0719    1.0000 </r>
       <r>    2.1679    1.0000 </r>
       <r>    2.7785    1.0000 </r>
       <r>    3.0647    1.0000 </r>
       <r>    3.3388    1.0000 </r>
       <r>    3.7099    1.0000 </r>
       <r>    4.1536    1.0000 </r>
       <r>    4.3614    1.0000 </r>
       <r>    5.6174    0.0000 </r>
       <r>    7.5343    0.0000 </r>
       <r>    7.7806    0.0000 </r>
       <r>    7.8468    0.0000 </r>
       <r>    8.0237    0.0000 </r>
       <r>    8.2698    0.0000 </r>
       <r>    8.7105    0.0000 </r>
       <r>    9.2217    0.0000 </r>
       <r>    9.3812    0.0000 </r>
       <r>    9.4999    0.0000 </r>
       <r>   10.0663    0.0000 </r>
       <r>   10.4657    0.0000 </r>
       <r>   10.7777    0.0000 </r>
       <r>   10.8451    0.0000 </r>
       <r>   11.1208    0.0000 </r>
       <r>   11.7290    0.0000 </r>
       <r>   11.7768    0.0000 </r>
       <r>   12.5775    0.0000 </r>
       <r>   13.0853    0.0000 </r>
       <r>   13.4108    0.0000 </r>
      </set>
      <set comment="kpoint 20">
       <r>  -16.4816    1.0000 </r>
       <r>  -16.4738    1.0000 </r>
       <r>  -16.4701    1.0000 </r>
       <r>  -16.4691    1.0000 </r>
       <r>  -16.4673    1.0000 </r>
       <r>  -16.4659    1.0000 </r>
       <r>  -16.4655    1.0000 </r>
       <r>  -16.4624    1.0000 </r>
       <r>  -16.4521    1.0000 </r>
       <r>  -16.4508    1.0000 </r>
       <r>  -16.4451    1.0000 </r>
       <r>  -16.4396    1.0000 </r>
       <r>  -16.4383    1.0000 </r>
       <r>  -16.4371    1.0000 </r>
       <r>  -16.4196    1.0000 </r>
       <r>  -16.4186    1.0000 </r>
       <r>  -16.4120    1.0000 </r>
       <r>  -16.4119    1.0000 </r>
       <r>  -16.4108    1.0000 </r>
       <r>  -16.4039    1.0000 </r>
       <r>   -8.6421    1.0000 </r>
       <r>   -8.3648    1.0000 </r>
       <r>   -7.7088    1.0000 </r>
       <r>   -7.3309    1.0000 </r>
       <r>   -2.1850    1.0000 </r>
       <r>   -1.2882    1.0000 </r>
       <r>   -0.5993    1.0000 </r>
       <r>   -0.2500    1.0000 </r>
       <r>    0.2158    1.0000 </r>
       <r>    1.6638    1.0000 </r>
       <r>    1.7411    1.0000 </r>
       <r>    1.8083    1.0000 </r>
       <r>    2.0719    1.0000 </r>
       <r>    2.1679    1.0000 </r>
       <r>    2.7785    1.0000 </r>
       <r>    3.0647    1.0000 </r>
       <r>    3.3388    1.0000 </r>
       <r>    3.7099    1.0000 </r>
       <r>    4.1536    1.0000 </r>
       <r>    4.3614    1.0000 </r>
       <r>    5.6174    0.0000 </r>
       <r>    7.5343    0.0000 </r>
       <r>    7.7806    0.0000 </r>
       <r>    7.8468    0.0000 </r>
       <r>    8.0237    0.0000 </r>
       <r>    8.2698    0.0000 </r>
       <r>    8.7105    0.0000 </r>
       <r>    9.2217    0.0000 </r>
       <r>    9.3812    0.0000 </r>
       <r>    9.4999    0.0000 </r>
       <r>   10.0663    0.0000 </r>
       <r>   10.4657    0.0000 </r>
       <r>   10.7777    0.0000 </r>
       <r>   10.8451    0.0000 </r>
       <r>   11.1208    0.0000 </r>
       <r>   11.7290    0.0000 </r>
       <r>   11.7768    0.0000 </r>
       <r>   12.5698    0.0000 </r>
       <r>   13.0645    0.0000 </r>
       <r>   13.4611    0.0000 </r>
      </set>
      <set comment="kpoint 21">
       <r>  -16.4816    1.0000 </r>
       <r>  -16.4737    1.0000 </r>
       <r>  -16.4700    1.0000 </r>
       <r>  -16.4691    1.0000 </r>
       <r>  -16.4672    1.0000 </r>
       <r>  -16.4659    1.0000 </r>
       <r>  -16.4656    1.0000 </r>
       <r>  -16.4624    1.0000 </r>
       <r>  -16.4521    1.0000 </r>
       <r>  -16.4508    1.0000 </r>
       <r>  -16.4450    1.0000 </r>
       <r>  -16.4398    1.0000 </r>
       <r>  -16.4381    1.0000 </r>
       <r>  -16.4371    1.0000 </r>
       <r>  -16.4195    1.0000 </r>
       <r>  -16.4187    1.0000 </r>
       <r>  -16.4120    1.0000 </r>
       <r>  -16.4120    1.0000 </r>
       <r>  -16.4108    1.0000 </r>
       <r>  -16.4040    1.0000 </r>
       <r>   -8.6396    1.0000 </r>
       <r>   -8.3627    1.0000 </r>
       <r>   -7.7077    1.0000 </r>
       <r>   -7.3307    1.0000 </r>
       <r>   -2.1882    1.0000 </r>
       <r>   -1.2944    1.0000 </r>
       <r>   -0.6032    1.0000 </r>
       <r>   -0.2618    1.0000 </r>
       <r>    0.2168    1.0000 </r>
       <r>    1.6661    1.0000 </r>
       <r>    1.7177    1.0000 </r>
       <r>    1.8350    1.0000 </r>
       <r>    2.0740    1.0000 </r>
       <r>    2.1673    1.0000 </r>
       <r>    2.7805    1.0000 </r>
       <r>    3.0679    1.0000 </r>
       <r>    3.3370    1.0000 </r>
       <r>    3.7182    1.0000 </r>
       <r>    4.1539    1.0000 </r>
       <r>    4.3596    1.0000 </r>
       <r>    5.6209    0.0000 </r>
       <r>    7.5362    0.0000 </r>
       <r>    7.7908    0.0000 </r>
       <r>    7.8556    0.0000 </r>
       <r>    7.9988    0.0000 </r>
       <r>    8.2545    0.0000 </r>
       <r>    8.7098    0.0000 </r>
       <r>    9.1966    0.0000 </r>
       <r>    9.3579    0.0000 </r>
       <r>    9.5173    0.0000 </r>
       <r>   10.0666    0.0000 </r>
       <r>   10.4442    0.0000 </r>
       <r>   10.7856    0.0000 </r>
       <r>   10.8515    0.0000 </r>
       <r>   11.0956    0.0000 </r>
       <r>   11.7081    0.0000 </r>
       <r>   11.7578    0.0000 </r>
       <r>   12.5945    0.0000 </r>
       <r>   13.0641    0.0000 </r>
       <r>   13.3703    0.0000 </r>
      </set>
      <set comment="kpoint 22">
       <r>  -16.4815    1.0000 </r>
       <r>  -16.4737    1.0000 </r>
       <r>  -16.4701    1.0000 </r>
       <r>  -16.4692    1.0000 </r>
       <r>  -16.4672    1.0000 </r>
       <r>  -16.4661    1.0000 </r>
       <r>  -16.4656    1.0000 </r>
       <r>  -16.4625    1.0000 </r>
       <r>  -16.4519    1.0000 </r>
       <r>  -16.4506    1.0000 </r>
       <r>  -16.4450    1.0000 </r>
       <r>  -16.4397    1.0000 </r>
       <r>  -16.4382    1.0000 </r>
       <r>  -16.4371    1.0000 </r>
       <r>  -16.4196    1.0000 </r>
       <r>  -16.4186    1.0000 </r>
       <r>  -16.4121    1.0000 </r>
       <r>  -16.4120    1.0000 </r>
       <r>  -16.4108    1.0000 </r>
       <r>  -16.4040    1.0000 </r>
       <r>   -8.6299    1.0000 </r>
       <r>   -8.3537    1.0000 </r>
       <r>   -7.7068    1.0000 </r>
       <r>   -7.3328    1.0000 </r>
       <r>   -2.2238    1.0000 </r>
       <r>   -1.3149    1.0000 </r>
       <r>   -0.6721    1.0000 </r>
       <r>   -0.2980    1.0000 </r>
       <r>    0.2232    1.0000 </r>
       <r>    1.6590    1.0000 </r>
       <r>    1.7359    1.0000 </r>
       <r>    1.9035    1.0000 </r>
       <r>    2.1414    1.0000 </r>
       <r>    2.1863    1.0000 </r>
       <r>    2.7843    1.0000 </r>
       <r>    3.0905    1.0000 </r>
       <r>    3.3419    1.0000 </r>
       <r>    3.7679    1.0000 </r>
       <r>    4.1194    1.0000 </r>
       <r>    4.3695    1.0000 </r>
       <r>    5.6213    0.0000 </r>
       <r>    7.4328    0.0000 </r>
       <r>    7.7932    0.0000 </r>
       <r>    7.8860    0.0000 </r>
       <r>    7.9975    0.0000 </r>
       <r>    8.1655    0.0000 </r>
       <r>    8.7354    0.0000 </r>
       <r>    9.1481    0.0000 </r>
       <r>    9.2839    0.0000 </r>
       <r>    9.4883    0.0000 </r>
       <r>   10.0518    0.0000 </r>
       <r>   10.3660    0.0000 </r>
       <r>   10.7347    0.0000 </r>
       <r>   10.8818    0.0000 </r>
       <r>   11.0810    0.0000 </r>
       <r>   11.7486    0.0000 </r>
       <r>   11.7603    0.0000 </r>
       <r>   12.6098    0.0000 </r>
       <r>   13.0098    0.0000 </r>
       <r>   13.3900    0.0000 </r>
      </set>
      <set comment="kpoint 23">
       <r>  -16.4815    1.0000 </r>
       <r>  -16.4737    1.0000 </r>
       <r>  -16.4701    1.0000 </r>
       <r>  -16.4692    1.0000 </r>
       <r>  -16.4673    1.0000 </r>
       <r>  -16.4660    1.0000 </r>
       <r>  -16.4656    1.0000 </r>
       <r>  -16.4624    1.0000 </r>
       <r>  -16.4519    1.0000 </r>
       <r>  -16.4506    1.0000 </r>
       <r>  -16.4450    1.0000 </r>
       <r>  -16.4395    1.0000 </r>
       <r>  -16.4383    1.0000 </r>
       <r>  -16.4371    1.0000 </r>
       <r>  -16.4196    1.0000 </r>
       <r>  -16.4185    1.0000 </r>
       <r>  -16.4121    1.0000 </r>
       <r>  -16.4120    1.0000 </r>
       <r>  -16.4108    1.0000 </r>
       <r>  -16.4040    1.0000 </r>
       <r>   -8.6323    1.0000 </r>
       <r>   -8.3558    1.0000 </r>
       <r>   -7.7079    1.0000 </r>
       <r>   -7.3331    1.0000 </r>
       <r>   -2.2210    1.0000 </r>
       <r>   -1.3092    1.0000 </r>
       <r>   -0.6683    1.0000 </r>
       <r>   -0.2875    1.0000 </r>
       <r>    0.2221    1.0000 </r>
       <r>    1.6613    1.0000 </r>
       <r>    1.7594    1.0000 </r>
       <r>    1.8766    1.0000 </r>
       <r>    2.1408    1.0000 </r>
       <r>    2.1830    1.0000 </r>
       <r>    2.7865    1.0000 </r>
       <r>    3.0849    1.0000 </r>
       <r>    3.3439    1.0000 </r>
       <r>    3.7584    1.0000 </r>
       <r>    4.1191    1.0000 </r>
       <r>    4.3711    1.0000 </r>
[...]
       <r>   -7.3369    1.0000 </r>
       <r>   -2.2139    1.0000 </r>
       <r>   -1.3373    1.0000 </r>
       <r>   -0.6444    1.0000 </r>
       <r>   -0.2847    1.0000 </r>
       <r>    0.2389    1.0000 </r>
       <r>    1.6506    1.0000 </r>
       <r>    1.7742    1.0000 </r>
       <r>    1.8606    1.0000 </r>
       <r>    2.1521    1.0000 </r>
       <r>    2.1726    1.0000 </r>
       <r>    2.7983    1.0000 </r>
       <r>    3.0747    1.0000 </r>
       <r>    3.3394    1.0000 </r>
       <r>    3.7054    1.0000 </r>
       <r>    4.1257    1.0000 </r>
       <r>    4.3711    1.0000 </r>
       <r>    5.6831    0.0000 </r>
       <r>    7.4310    0.0000 </r>
       <r>    7.7634    0.0000 </r>
       <r>    7.8723    0.0000 </r>
       <r>    8.0410    0.0000 </r>
       <r>    8.2068    0.0000 </r>
       <r>    8.7307    0.0000 </r>
       <r>    9.1009    0.0000 </r>
       <r>    9.3905    0.0000 </r>
       <r>    9.4655    0.0000 </r>
       <r>   10.0247    0.0000 </r>
       <r>   10.3973    0.0000 </r>
       <r>   10.7005    0.0000 </r>
       <r>   10.8452    0.0000 </r>
       <r>   11.1210    0.0000 </r>
       <r>   11.7615    0.0000 </r>
       <r>   11.7953    0.0000 </r>
       <r>   12.5326    0.0000 </r>
       <r>   13.0153    0.0000 </r>
       <r>   13.2742    0.0000 </r>
      </set>
      <set comment="kpoint 61">
       <r>  -16.4814    1.0000 </r>
       <r>  -16.4738    1.0000 </r>
       <r>  -16.4701    1.0000 </r>
       <r>  -16.4692    1.0000 </r>
       <r>  -16.4673    1.0000 </r>
       <r>  -16.4663    1.0000 </r>
       <r>  -16.4654    1.0000 </r>
       <r>  -16.4625    1.0000 </r>
       <r>  -16.4518    1.0000 </r>
       <r>  -16.4504    1.0000 </r>
       <r>  -16.4449    1.0000 </r>
       <r>  -16.4393    1.0000 </r>
       <r>  -16.4385    1.0000 </r>
       <r>  -16.4371    1.0000 </r>
       <r>  -16.4197    1.0000 </r>
       <r>  -16.4185    1.0000 </r>
       <r>  -16.4122    1.0000 </r>
       <r>  -16.4120    1.0000 </r>
       <r>  -16.4107    1.0000 </r>
       <r>  -16.4041    1.0000 </r>
       <r>   -8.6238    1.0000 </r>
       <r>   -8.3554    1.0000 </r>
       <r>   -7.7013    1.0000 </r>
       <r>   -7.3385    1.0000 </r>
       <r>   -2.2386    1.0000 </r>
       <r>   -1.3529    1.0000 </r>
       <r>   -0.6924    1.0000 </r>
       <r>   -0.3097    1.0000 </r>
       <r>    0.2442    1.0000 </r>
       <r>    1.6587    1.0000 </r>
       <r>    1.7851    1.0000 </r>
       <r>    1.9022    1.0000 </r>
       <r>    2.1825    1.0000 </r>
       <r>    2.1967    1.0000 </r>
       <r>    2.8049    1.0000 </r>
       <r>    3.0894    1.0000 </r>
       <r>    3.3430    1.0000 </r>
       <r>    3.7395    1.0000 </r>
       <r>    4.1034    1.0000 </r>
       <r>    4.3753    1.0000 </r>
       <r>    5.6844    0.0000 </r>
       <r>    7.3695    0.0000 </r>
       <r>    7.7671    0.0000 </r>
       <r>    7.8885    0.0000 </r>
       <r>    8.0223    0.0000 </r>
       <r>    8.1563    0.0000 </r>
       <r>    8.7482    0.0000 </r>
       <r>    9.0586    0.0000 </r>
       <r>    9.3425    0.0000 </r>
       <r>    9.4477    0.0000 </r>
       <r>   10.0137    0.0000 </r>
       <r>   10.3503    0.0000 </r>
       <r>   10.6582    0.0000 </r>
       <r>   10.8667    0.0000 </r>
       <r>   11.1102    0.0000 </r>
       <r>   11.7830    0.0000 </r>
       <r>   11.7942    0.0000 </r>
       <r>   12.5505    0.0000 </r>
       <r>   13.1015    0.0000 </r>
       <r>   13.2914    0.0000 </r>
      </set>
     </set>
    </set>
   </array>
  </eigenvalues>
  <separator name="orbital magnetization" >
   <v name="MAGDIPOLOUT">      0.00000000      0.00000000      0.00000000</v>
  </separator>
  <dos>
   <i name="efermi">      4.64908779 </i>
   <total>
    <array>
     <dimension dim="1">gridpoints</dimension>
     <dimension dim="2">spin</dimension>
     <field>energy</field>
     <field>total</field>
     <field>integrated</field>
     <set>
      <set comment="spin 1">
       <r>   -17.9865     0.0000     0.0000 </r>
       <r>   -17.8761     0.0000     0.0000 </r>
       <r>   -17.7658     0.0000     0.0000 </r>
       <r>   -17.6554     0.0000     0.0000 </r>
       <r>   -17.5451     0.0000     0.0000 </r>
       <r>   -17.4347     0.0000     0.0000 </r>
       <r>   -17.3244     0.0000     0.0000 </r>
       <r>   -17.2140     0.0000     0.0000 </r>
       <r>   -17.1037     0.0000     0.0000 </r>
       <r>   -16.9933     0.0000     0.0000 </r>
       <r>   -16.8830     0.0000     0.0000 </r>
       <r>   -16.7726     0.0000     0.0000 </r>
       <r>   -16.6623     0.0000     0.0000 </r>
       <r>   -16.5519     1.6946     0.1870 </r>
       <r>   -16.4416   191.6266    21.3330 </r>
       <r>   -16.3312   167.8430    39.8545 </r>
       <r>   -16.2209     1.3184    40.0000 </r>
       <r>   -16.1105     0.0000    40.0000 </r>
       <r>   -16.0002     0.0000    40.0000 </r>
       <r>   -15.8898     0.0000    40.0000 </r>
       <r>   -15.7795     0.0000    40.0000 </r>
       <r>   -15.6691     0.0000    40.0000 </r>
       <r>   -15.5588     0.0000    40.0000 </r>
       <r>   -15.4484     0.0000    40.0000 </r>
       <r>   -15.3381     0.0000    40.0000 </r>
       <r>   -15.2277     0.0000    40.0000 </r>
       <r>   -15.1174     0.0000    40.0000 </r>
       <r>   -15.0070     0.0000    40.0000 </r>
       <r>   -14.8967     0.0000    40.0000 </r>
       <r>   -14.7863     0.0000    40.0000 </r>
       <r>   -14.6760     0.0000    40.0000 </r>
       <r>   -14.5656     0.0000    40.0000 </r>
       <r>   -14.4553     0.0000    40.0000 </r>
       <r>   -14.3449     0.0000    40.0000 </r>
       <r>   -14.2346     0.0000    40.0000 </r>
       <r>   -14.1242     0.0000    40.0000 </r>
       <r>   -14.0139     0.0000    40.0000 </r>
       <r>   -13.9035     0.0000    40.0000 </r>
       <r>   -13.7932     0.0000    40.0000 </r>
       <r>   -13.6828     0.0000    40.0000 </r>
       <r>   -13.5725     0.0000    40.0000 </r>
       <r>   -13.4621     0.0000    40.0000 </r>
       <r>   -13.3518     0.0000    40.0000 </r>
       <r>   -13.2414     0.0000    40.0000 </r>
       <r>   -13.1311     0.0000    40.0000 </r>
       <r>   -13.0207     0.0000    40.0000 </r>
       <r>   -12.9104     0.0000    40.0000 </r>
       <r>   -12.8000     0.0000    40.0000 </r>
       <r>   -12.6897     0.0000    40.0000 </r>
       <r>   -12.5793     0.0000    40.0000 </r>
       <r>   -12.4690     0.0000    40.0000 </r>
       <r>   -12.3586     0.0000    40.0000 </r>
       <r>   -12.2483     0.0000    40.0000 </r>
       <r>   -12.1379     0.0000    40.0000 </r>
       <r>   -12.0276     0.0000    40.0000 </r>
       <r>   -11.9172     0.0000    40.0000 </r>
       <r>   -11.8069     0.0000    40.0000 </r>
       <r>   -11.6965     0.0000    40.0000 </r>
       <r>   -11.5862     0.0000    40.0000 </r>
       <r>   -11.4758     0.0000    40.0000 </r>
       <r>   -11.3655     0.0000    40.0000 </r>
       <r>   -11.2551     0.0000    40.0000 </r>
       <r>   -11.1448     0.0000    40.0000 </r>
       <r>   -11.0344     0.0000    40.0000 </r>
       <r>   -10.9241     0.0000    40.0000 </r>
       <r>   -10.8137     0.0000    40.0000 </r>
       <r>   -10.7034     0.0000    40.0000 </r>
       <r>   -10.5930     0.0000    40.0000 </r>
       <r>   -10.4827     0.0000    40.0000 </r>
       <r>   -10.3723     0.0000    40.0000 </r>
       <r>   -10.2620     0.0000    40.0000 </r>
       <r>   -10.1516     0.0000    40.0000 </r>
       <r>   -10.0413     0.0000    40.0000 </r>
       <r>    -9.9309     0.0000    40.0000 </r>
       <r>    -9.8206     0.0000    40.0000 </r>
       <r>    -9.7102     0.0000    40.0000 </r>
       <r>    -9.5999     0.0000    40.0000 </r>
       <r>    -9.4895     0.0000    40.0000 </r>
       <r>    -9.3792     0.0000    40.0000 </r>
       <r>    -9.2688     0.0000    40.0000 </r>
       <r>    -9.1585     0.0000    40.0000 </r>
       <r>    -9.0481     0.0000    40.0000 </r>
       <r>    -8.9378     0.0000    40.0000 </r>
       <r>    -8.8274     0.0000    40.0000 </r>
       <r>    -8.7171     0.2090    40.0231 </r>
       <r>    -8.6067    14.0990    41.5789 </r>
       <r>    -8.4964     3.8167    42.0001 </r>
       <r>    -8.3860     4.5011    42.4968 </r>
       <r>    -8.2757    13.4706    43.9832 </r>
       <r>    -8.1653     0.1518    44.0000 </r>
       <r>    -8.0550     0.0000    44.0000 </r>
       <r>    -7.9446     0.0000    44.0000 </r>
       <r>    -7.8343     0.0026    44.0003 </r>
       <r>    -7.7239     5.5125    44.6086 </r>
       <r>    -7.6136    12.5245    45.9907 </r>
       <r>    -7.5032     0.0846    46.0000 </r>
       <r>    -7.3929     0.8444    46.0932 </r>
       <r>    -7.2825    15.9140    47.8493 </r>
       <r>    -7.1722     1.3656    48.0000 </r>
       <r>    -7.0618     0.0000    48.0000 </r>
       <r>    -6.9515     0.0000    48.0000 </r>
       <r>    -6.8411     0.0000    48.0000 </r>
       <r>    -6.7308     0.0000    48.0000 </r>
       <r>    -6.6204     0.0000    48.0000 </r>
       <r>    -6.5101     0.0000    48.0000 </r>
       <r>    -6.3997     0.0000    48.0000 </r>
       <r>    -6.2894     0.0000    48.0000 </r>
       <r>    -6.1790     0.0000    48.0000 </r>
       <r>    -6.0687     0.0000    48.0000 </r>
       <r>    -5.9583     0.0000    48.0000 </r>
       <r>    -5.8480     0.0000    48.0000 </r>
       <r>    -5.7376     0.0000    48.0000 </r>
       <r>    -5.6273     0.0000    48.0000 </r>
       <r>    -5.5169     0.0000    48.0000 </r>
       <r>    -5.4066     0.0000    48.0000 </r>
       <r>    -5.2962     0.0000    48.0000 </r>
       <r>    -5.1859     0.0000    48.0000 </r>
       <r>    -5.0755     0.0000    48.0000 </r>
       <r>    -4.9652     0.0000    48.0000 </r>
       <r>    -4.8548     0.0000    48.0000 </r>
       <r>    -4.7445     0.0000    48.0000 </r>
       <r>    -4.6341     0.0000    48.0000 </r>
       <r>    -4.5238     0.0000    48.0000 </r>
       <r>    -4.4134     0.0000    48.0000 </r>
       <r>    -4.3031     0.0000    48.0000 </r>
       <r>    -4.1927     0.0000    48.0000 </r>
       <r>    -4.0824     0.0000    48.0000 </r>
       <r>    -3.9720     0.0000    48.0000 </r>
       <r>    -3.8617     0.0000    48.0000 </r>
       <r>    -3.7513     0.0000    48.0000 </r>
       <r>    -3.6410     0.0000    48.0000 </r>
       <r>    -3.5306     0.0000    48.0000 </r>
       <r>    -3.4203     0.0000    48.0000 </r>
       <r>    -3.3099     0.0000    48.0000 </r>
       <r>    -3.1996     0.0000    48.0000 </r>
       <r>    -3.0892     0.0000    48.0000 </r>
       <r>    -2.9789     0.0000    48.0000 </r>
       <r>    -2.8685     0.0000    48.0000 </r>
       <r>    -2.7582     0.0000    48.0000 </r>
       <r>    -2.6478     0.0000    48.0000 </r>
       <r>    -2.5375     0.0000    48.0000 </r>
       <r>    -2.4271     0.0000    48.0000 </r>
       <r>    -2.3168     0.0661    48.0073 </r>
       <r>    -2.2064     8.1590    48.9076 </r>
       <r>    -2.0961     9.8241    49.9917 </r>
       <r>    -1.9857     0.0748    50.0000 </r>
       <r>    -1.8754     0.0000    50.0000 </r>
       <r>    -1.7650     0.0000    50.0000 </r>
       <r>    -1.6547     0.0000    50.0000 </r>
       <r>    -1.5443     0.0000    50.0000 </r>
       <r>    -1.4340     0.0171    50.0019 </r>
       <r>    -1.3236     6.8081    50.7532 </r>
       <r>    -1.2133    11.1892    51.9879 </r>
       <r>    -1.1029     0.1097    52.0000 </r>
       <r>    -0.9926     0.0000    52.0000 </r>
       <r>    -0.8822     0.0000    52.0000 </r>
       <r>    -0.7719     0.1277    52.0141 </r>
       <r>    -0.6615     4.6755    52.5300 </r>
       <r>    -0.5512    12.0093    53.8553 </r>
       <r>    -0.4408     1.3115    54.0000 </r>
       <r>    -0.3305     1.5524    54.1713 </r>
       <r>    -0.2201    14.5667    55.7787 </r>
       <r>    -0.1098     2.0045    55.9999 </r>
       <r>     0.0006     0.0005    56.0000 </r>
       <r>     0.1109     0.0138    56.0015 </r>
       <r>     0.2213     8.2106    56.9076 </r>
       <r>     0.3316     9.8683    57.9965 </r>
       <r>     0.4420     0.0315    58.0000 </r>
       <r>     0.5523     0.0000    58.0000 </r>
       <r>     0.6627     0.0000    58.0000 </r>
       <r>     0.7730     0.0000    58.0000 </r>
       <r>     0.8834     0.0000    58.0000 </r>
       <r>     0.9937     0.0000    58.0000 </r>
       <r>     1.1041     0.0000    58.0000 </r>
       <r>     1.2144     0.0000    58.0000 </r>
       <r>     1.3248     0.0000    58.0000 </r>
       <r>     1.4351     0.0000    58.0000 </r>
       <r>     1.5455     0.0164    58.0018 </r>
       <r>     1.6558     8.7301    58.9652 </r>
       <r>     1.7662    22.6488    61.4645 </r>
       <r>     1.8765    17.6817    63.4157 </r>
       <r>     1.9869     5.2803    63.9983 </r>
       <r>     2.0972     7.6716    64.8449 </r>
       <r>     2.2076    24.5355    67.5524 </r>
       <r>     2.3179     4.0550    67.9999 </r>
       <r>     2.4283     0.0013    68.0000 </r>
       <r>     2.5386     0.0000    68.0000 </r>
       <r>     2.6490     0.0011    68.0001 </r>
       <r>     2.7593     4.0352    68.4454 </r>
       <r>     2.8697    13.8934    69.9785 </r>
       <r>     2.9800     0.3094    70.0127 </r>
       <r>     3.0904    12.1349    71.3518 </r>
       <r>     3.2007     5.8670    71.9992 </r>
       <r>     3.3111     3.8892    72.4284 </r>
       <r>     3.4214    14.0521    73.9790 </r>
       <r>     3.5318     0.1907    74.0001 </r>
       <r>     3.6421     1.1939    74.1318 </r>
       <r>     3.7525    12.3673    75.4966 </r>
       <r>     3.8628     4.5102    75.9943 </r>
       <r>     3.9732     0.0526    76.0001 </r>
       <r>     4.0835     1.7495    76.1931 </r>
       <r>     4.1939    14.8411    77.8308 </r>
       <r>     4.3042     2.2962    78.0842 </r>
       <r>     4.4146    15.7768    79.8252 </r>
       <r>     4.5249     1.5840    80.0000 </r>
       <r>     4.6353     0.0001    80.0000 </r>
       <r>     4.7456     0.0000    80.0000 </r>
       <r>     4.8560     0.0000    80.0000 </r>
       <r>     4.9663     0.0000    80.0000 </r>
       <r>     5.0767     0.0000    80.0000 </r>
       <r>     5.1870     0.0000    80.0000 </r>
       <r>     5.2974     0.0000    80.0000 </r>
       <r>     5.4077     0.0000    80.0000 </r>
       <r>     5.5181     0.0189    80.0021 </r>
       <r>     5.6284     7.0744    80.7827 </r>
       <r>     5.7388    10.6875    81.9621 </r>
       <r>     5.8491     0.3433    82.0000 </r>
       <r>     5.9595     0.0000    82.0000 </r>
       <r>     6.0698     0.0000    82.0000 </r>
       <r>     6.1802     0.0000    82.0000 </r>
       <r>     6.2905     0.0000    82.0000 </r>
       <r>     6.4009     0.0000    82.0000 </r>
       <r>     6.5112     0.0000    82.0000 </r>
       <r>     6.6216     0.0000    82.0000 </r>
       <r>     6.7319     0.0000    82.0000 </r>
       <r>     6.8423     0.0000    82.0000 </r>
       <r>     6.9526     0.0000    82.0000 </r>
       <r>     7.0630     0.0000    82.0000 </r>
       <r>     7.1733     0.0000    82.0000 </r>
       <r>     7.2837     0.0216    82.0024 </r>
       <r>     7.3940     2.4133    82.2687 </r>
       <r>     7.5044     8.7294    83.2320 </r>
       <r>     7.6147     6.7409    83.9758 </r>
       <r>     7.7251     1.7113    84.1647 </r>
       <r>     7.8354    19.7858    86.3480 </r>
       <r>     7.9458    15.0908    88.0133 </r>
       <r>     8.0561    14.3028    89.5916 </r>
       <r>     8.1665     6.6442    90.3248 </r>
       <r>     8.2768    11.2945    91.5712 </r>
       <r>     8.3872     3.8705    91.9983 </r>
       <r>     8.4975     0.0156    92.0000 </r>
       <r>     8.6079     0.0246    92.0027 </r>
       <r>     8.7182     8.3804    92.9275 </r>
       <r>     8.8286     9.6519    93.9926 </r>
       <r>     8.9389     0.0675    94.0000 </r>
       <r>     9.0493     0.4149    94.0458 </r>
       <r>     9.1596     8.3296    94.9650 </r>
       <r>     9.2700    10.5881    96.1334 </r>
       <r>     9.3803     9.1209    97.1399 </r>
       <r>     9.4907    16.6588    98.9782 </r>
       <r>     9.6010     9.2090    99.9944 </r>
       <r>     9.7114     0.0507   100.0000 </r>
       <r>     9.8217     0.0000   100.0000 </r>
       <r>     9.9321     0.0241   100.0027 </r>
       <r>    10.0425     8.0013   100.8856 </r>
       <r>    10.1528    10.0476   101.9944 </r>
       <r>    10.2632     0.1096   102.0065 </r>
       <r>    10.3735     3.6268   102.4067 </r>
       <r>    10.4839    11.8976   103.7196 </r>
       <r>    10.5942     2.5976   104.0062 </r>
       <r>    10.7046     4.0691   104.4552 </r>
       <r>    10.8149    15.9377   106.2140 </r>
       <r>    10.9253    15.3915   107.9124 </r>
       <r>    11.0356     1.2876   108.0545 </r>
       <r>    11.1460    14.1375   109.6146 </r>
       <r>    11.2563     3.4912   109.9998 </r>
       <r>    11.3667     0.0015   110.0000 </r>
       <r>    11.4770     0.0000   110.0000 </r>
       <r>    11.5874     0.0013   110.0001 </r>
       <r>    11.6977     3.0305   110.3346 </r>
       <r>    11.8081    28.0724   113.4324 </r>
       <r>    11.9184     5.1422   113.9998 </r>
       <r>    12.0288     0.0018   114.0000 </r>
       <r>    12.1391     0.0000   114.0000 </r>
       <r>    12.2495     0.0000   114.0000 </r>
       <r>    12.3598     0.0000   114.0000 </r>
       <r>    12.4702     0.2123   114.0234 </r>
       <r>    12.5805    11.3826   115.2795 </r>
       <r>    12.6909     6.5000   115.9968 </r>
       <r>    12.8012     0.0293   116.0000 </r>
       <r>    12.9116     0.1706   116.0188 </r>
       <r>    13.0219     4.8441   116.5534 </r>
       <r>    13.1323    10.4852   117.7104 </r>
       <r>    13.2426     2.9648   118.0376 </r>
       <r>    13.3530     9.6850   119.1063 </r>
       <r>    13.4633     6.4543   119.8186 </r>
       <r>    13.5737     1.1239   119.9426 </r>
       <r>    13.6840     0.5124   119.9991 </r>
       <r>    13.7944     0.0080   120.0000 </r>
       <r>    13.9047     0.0000   120.0000 </r>
       <r>    14.0151     0.0000   120.0000 </r>
       <r>    14.1254     0.0000   120.0000 </r>
       <r>    14.2358     0.0000   120.0000 </r>
       <r>    14.3461     0.0000   120.0000 </r>
       <r>    14.4565     0.0000   120.0000 </r>
       <r>    14.5668     0.0000   120.0000 </r>
       <r>    14.6772     0.0000   120.0000 </r>
       <r>    14.7875     0.0000   120.0000 </r>
       <r>    14.8979     0.0000   120.0000 </r>
       <r>    15.0082     0.0000   120.0000 </r>
       <r>    15.1186     0.0000   120.0000 </r>
      </set>
     </set>
    </array>
   </total>
  </dos>
 </calculation>
 <structure name="finalpos" >
  <crystal>
   <varray name="basis" >
    <v>       4.20759812       0.00000000       0.00000000 </v>
    <v>       0.00000000       4.56286825       0.00000000 </v>
    <v>       0.00000000       0.00000000      11.78411723 </v>
   </varray>
   <i name="volume">    226.23991848 </i>
   <varray name="rec_basis" >
    <v>       0.23766528      -0.00000000       0.00000000 </v>
    <v>       0.00000000       0.21916039       0.00000000 </v>
    <v>      -0.00000000      -0.00000000       0.08485998 </v>
   </varray>
  </crystal>
  <varray name="positions" >
   <v>       0.25000000       0.11535153       0.12105944 </v>
   <v>       0.75000000       0.88464847       0.87894056 </v>
   <v>       0.75000000       0.61535153       0.37894056 </v>
   <v>       0.25000000       0.38464847       0.62105944 </v>
   <v>       0.75000000       0.52384045       0.14512047 </v>
   <v>       0.25000000       0.47615955       0.85487953 </v>
   <v>       0.25000000       0.02384045       0.35487953 </v>
   <v>       0.75000000       0.97615955       0.64512047 </v>
  </varray>
 </structure>
</modeling>
