<?xml version="1.0" encoding="ISO-8859-1"?>
<modeling>
 <generator>
  <i name="program" type="string">vasp </i>
  <i name="version" type="string">5.4.4.18Apr17-6-g9f103f2a35  </i>
  <i name="subversion" type="string">(build Mar 20 2018 18:01:20) complex            parallel </i>
  <i name="platform" type="string">LinuxGNU </i>
  <i name="date" type="string">2020 04 25 </i>
  <i name="time" type="string">14:30:44 </i>
 </generator>
 <incar>
  <i type="string" name="SYSTEM"> SnSe</i>
  <i type="int" name="ISTART">     0</i>
  <i type="string" name="PREC">accurate</i>
  <i type="logical" name="ADDGRID"> T  </i>
  <i type="int" name="ICHARG">     2</i>
  <i type="int" name="IBRION">     6</i>
  <i type="int" name="NFREE">     4</i>
  <i name="EDIFF">      0.00000010</i>
  <i name="EDIFFG">     -0.00100000</i>
  <i type="int" name="ISIF">     3</i>
  <i name="ENCUT">    600.00000000</i>
  <i type="int" name="ISMEAR">    -5</i>
  <i type="logical" name="LWAVE"> F  </i>
  <i type="logical" name="LCHARG"> F  </i>
  <v type="int" name="KPOINT_BSE">    -1     0     0     0</v>
 </incar>
 <structure name="primitive_cell" >
  <crystal>
   <varray name="basis" >
    <v>       4.16842225       0.00000000       0.00000000 </v>
    <v>       0.00000000       4.53967086       0.00000000 </v>
    <v>       0.00000000       0.00000000      11.56850013 </v>
   </varray>
   <i name="volume">    218.91379385 </i>
   <varray name="rec_basis" >
    <v>       0.23989892      -0.00000000       0.00000000 </v>
    <v>       0.00000000       0.22028029       0.00000000 </v>
    <v>      -0.00000000      -0.00000000       0.08644163 </v>
   </varray>
  </crystal>
  <varray name="positions" >
   <v>       0.25000000       0.11238621       0.11664596 </v>
   <v>       0.25000000       0.01916418       0.35489350 </v>
   <v>      -0.25000000      -0.48083582       0.14510650 </v>
   <v>       0.25000000       0.48083582      -0.14510650 </v>
   <v>      -0.25000000      -0.11238621      -0.11664596 </v>
   <v>      -0.25000000      -0.38761379       0.38335404 </v>
   <v>      -0.25000000      -0.01916418      -0.35489350 </v>
   <v>       0.25000000       0.38761379      -0.38335404 </v>
  </varray>
 </structure>
 <varray name="primitive_index" >
  <v type="int" >        1 </v>
  <v type="int" >        7 </v>
  <v type="int" >        5 </v>
  <v type="int" >        6 </v>
  <v type="int" >        2 </v>
  <v type="int" >        3 </v>
  <v type="int" >        8 </v>
  <v type="int" >        4 </v>
 </varray>
 <kpoints>
  <generation param="Gamma">
   <v type="int" name="divisions">       8        8        4 </v>
   <v name="usershift">      0.00000000       0.00000000       0.00000000 </v>
   <v name="genvec1">      0.12500000       0.00000000       0.00000000 </v>
   <v name="genvec2">      0.00000000       0.12500000       0.00000000 </v>
   <v name="genvec3">      0.00000000       0.00000000       0.25000000 </v>
   <v name="shift">      0.00000000       0.00000000       0.00000000 </v>
  </generation>
  <varray name="kpointlist" >
   <v>       0.00000000       0.00000000       0.00000000 </v>
   <v>       0.12500000       0.00000000       0.00000000 </v>
   <v>       0.25000000       0.00000000       0.00000000 </v>
   <v>       0.37500000       0.00000000       0.00000000 </v>
   <v>       0.50000000       0.00000000       0.00000000 </v>
   <v>       0.00000000       0.12500000       0.00000000 </v>
   <v>       0.12500000       0.12500000       0.00000000 </v>
   <v>       0.25000000       0.12500000       0.00000000 </v>
   <v>       0.37500000       0.12500000       0.00000000 </v>
   <v>       0.50000000       0.12500000       0.00000000 </v>
   <v>       0.00000000       0.25000000       0.00000000 </v>
   <v>       0.12500000       0.25000000       0.00000000 </v>
   <v>       0.25000000       0.25000000       0.00000000 </v>
   <v>       0.37500000       0.25000000       0.00000000 </v>
   <v>       0.50000000       0.25000000       0.00000000 </v>
   <v>       0.00000000       0.37500000       0.00000000 </v>
   <v>       0.12500000       0.37500000       0.00000000 </v>
   <v>       0.25000000       0.37500000       0.00000000 </v>
   <v>       0.37500000       0.37500000       0.00000000 </v>
   <v>       0.50000000       0.37500000       0.00000000 </v>
   <v>       0.00000000       0.50000000       0.00000000 </v>
   <v>       0.12500000       0.50000000       0.00000000 </v>
   <v>       0.25000000       0.50000000       0.00000000 </v>
   <v>       0.37500000       0.50000000       0.00000000 </v>
   <v>       0.50000000       0.50000000       0.00000000 </v>
   <v>       0.00000000       0.00000000       0.25000000 </v>
   <v>       0.12500000       0.00000000       0.25000000 </v>
   <v>       0.25000000       0.00000000       0.25000000 </v>
   <v>       0.37500000       0.00000000       0.25000000 </v>
   <v>       0.50000000       0.00000000       0.25000000 </v>
   <v>       0.00000000       0.12500000       0.25000000 </v>
   <v>       0.12500000       0.12500000       0.25000000 </v>
   <v>       0.25000000       0.12500000       0.25000000 </v>
   <v>       0.37500000       0.12500000       0.25000000 </v>
   <v>       0.50000000       0.12500000       0.25000000 </v>
   <v>       0.00000000       0.25000000       0.25000000 </v>
   <v>       0.12500000       0.25000000       0.25000000 </v>
   <v>       0.25000000       0.25000000       0.25000000 </v>
   <v>       0.37500000       0.25000000       0.25000000 </v>
   <v>       0.50000000       0.25000000       0.25000000 </v>
   <v>       0.00000000       0.37500000       0.25000000 </v>
   <v>       0.12500000       0.37500000       0.25000000 </v>
   <v>       0.25000000       0.37500000       0.25000000 </v>
   <v>       0.37500000       0.37500000       0.25000000 </v>
   <v>       0.50000000       0.37500000       0.25000000 </v>
   <v>       0.00000000       0.50000000       0.25000000 </v>
   <v>       0.12500000       0.50000000       0.25000000 </v>
   <v>       0.25000000       0.50000000       0.25000000 </v>
   <v>       0.37500000       0.50000000       0.25000000 </v>
   <v>       0.50000000       0.50000000       0.25000000 </v>
   <v>       0.00000000       0.00000000       0.50000000 </v>
   <v>       0.12500000       0.00000000       0.50000000 </v>
   <v>       0.25000000       0.00000000       0.50000000 </v>
   <v>       0.37500000       0.00000000       0.50000000 </v>
   <v>       0.50000000       0.00000000       0.50000000 </v>
   <v>       0.00000000       0.12500000       0.50000000 </v>
   <v>       0.12500000       0.12500000       0.50000000 </v>
   <v>       0.25000000       0.12500000       0.50000000 </v>
   <v>       0.37500000       0.12500000       0.50000000 </v>
   <v>       0.50000000       0.12500000       0.50000000 </v>
   <v>       0.00000000       0.25000000       0.50000000 </v>
   <v>       0.12500000       0.25000000       0.50000000 </v>
   <v>       0.25000000       0.25000000       0.50000000 </v>
   <v>       0.37500000       0.25000000       0.50000000 </v>
   <v>       0.50000000       0.25000000       0.50000000 </v>
   <v>       0.00000000       0.37500000       0.50000000 </v>
   <v>       0.12500000       0.37500000       0.50000000 </v>
   <v>       0.25000000       0.37500000       0.50000000 </v>
   <v>       0.37500000       0.37500000       0.50000000 </v>
   <v>       0.50000000       0.37500000       0.50000000 </v>
   <v>       0.00000000       0.50000000       0.50000000 </v>
   <v>       0.12500000       0.50000000       0.50000000 </v>
   <v>       0.25000000       0.50000000       0.50000000 </v>
   <v>       0.37500000       0.50000000       0.50000000 </v>
   <v>       0.50000000       0.50000000       0.50000000 </v>
  </varray>
  <varray name="weights" >
   <v>       0.00390625 </v>
   <v>       0.00781250 </v>
   <v>       0.00781250 </v>
   <v>       0.00781250 </v>
   <v>       0.00390625 </v>
   <v>       0.00781250 </v>
   <v>       0.01562500 </v>
   <v>       0.01562500 </v>
   <v>       0.01562500 </v>
   <v>       0.00781250 </v>
   <v>       0.00781250 </v>
   <v>       0.01562500 </v>
   <v>       0.01562500 </v>
   <v>       0.01562500 </v>
   <v>       0.00781250 </v>
   <v>       0.00781250 </v>
   <v>       0.01562500 </v>
   <v>       0.01562500 </v>
   <v>       0.01562500 </v>
   <v>       0.00781250 </v>
   <v>       0.00390625 </v>
   <v>       0.00781250 </v>
   <v>       0.00781250 </v>
   <v>       0.00781250 </v>
   <v>       0.00390625 </v>
   <v>       0.00781250 </v>
   <v>       0.01562500 </v>
   <v>       0.01562500 </v>
   <v>       0.01562500 </v>
   <v>       0.00781250 </v>
   <v>       0.01562500 </v>
   <v>       0.03125000 </v>
   <v>       0.03125000 </v>
   <v>       0.03125000 </v>
   <v>       0.01562500 </v>
   <v>       0.01562500 </v>
   <v>       0.03125000 </v>
   <v>       0.03125000 </v>
   <v>       0.03125000 </v>
   <v>       0.01562500 </v>
   <v>       0.01562500 </v>
   <v>       0.03125000 </v>
   <v>       0.03125000 </v>
   <v>       0.03125000 </v>
   <v>       0.01562500 </v>
   <v>       0.00781250 </v>
   <v>       0.01562500 </v>
   <v>       0.01562500 </v>
   <v>       0.01562500 </v>
   <v>       0.00781250 </v>
   <v>       0.00390625 </v>
   <v>       0.00781250 </v>
   <v>       0.00781250 </v>
   <v>       0.00781250 </v>
   <v>       0.00390625 </v>
   <v>       0.00781250 </v>
   <v>       0.01562500 </v>
   <v>       0.01562500 </v>
   <v>       0.01562500 </v>
   <v>       0.00781250 </v>
   <v>       0.00781250 </v>
   <v>       0.01562500 </v>
   <v>       0.01562500 </v>
   <v>       0.01562500 </v>
   <v>       0.00781250 </v>
   <v>       0.00781250 </v>
   <v>       0.01562500 </v>
   <v>       0.01562500 </v>
   <v>       0.01562500 </v>
   <v>       0.00781250 </v>
   <v>       0.00390625 </v>
   <v>       0.00781250 </v>
   <v>       0.00781250 </v>
   <v>       0.00781250 </v>
   <v>       0.00390625 </v>
  </varray>
  <varray name="tetrahedronlist"  type="int" >
   <v type="int" >        2        1        2        7       26 </v>
   <v type="int" >        2        1        6        7       26 </v>
   <v type="int" >        2        6        7       26       31 </v>
   <v type="int" >        2        2        7       26       27 </v>
   <v type="int" >        2        7       26       27       32 </v>
   <v type="int" >        2        7       26       31       32 </v>
   <v type="int" >        2        2        3        8       27 </v>
   <v type="int" >        2        2        7        8       27 </v>
   <v type="int" >        2        7        8       27       32 </v>
   <v type="int" >        2        3        8       27       28 </v>
   <v type="int" >        2        8       27       28       33 </v>
   <v type="int" >        2        8       27       32       33 </v>
   <v type="int" >        2        3        4        9       28 </v>
   <v type="int" >        2        3        8        9       28 </v>
   <v type="int" >        2        8        9       28       33 </v>
   <v type="int" >        2        4        9       28       29 </v>
   <v type="int" >        2        9       28       29       34 </v>
   <v type="int" >        2        9       28       33       34 </v>
   <v type="int" >        2        4        5       10       29 </v>
   <v type="int" >        2        4        9       10       29 </v>
   <v type="int" >        2        9       10       29       34 </v>
   <v type="int" >        2        5       10       29       30 </v>
   <v type="int" >        2       10       29       30       35 </v>
   <v type="int" >        2       10       29       34       35 </v>
   <v type="int" >        2        4        5        9       30 </v>
   <v type="int" >        2        5        9       10       30 </v>
   <v type="int" >        2        9       10       30       35 </v>
   <v type="int" >        2        4        9       29       30 </v>
   <v type="int" >        2        9       29       30       34 </v>
   <v type="int" >        2        9       30       34       35 </v>
   <v type="int" >        2        3        4        8       29 </v>
   <v type="int" >        2        4        8        9       29 </v>
   <v type="int" >        2        8        9       29       34 </v>
   <v type="int" >        2        3        8       28       29 </v>
   <v type="int" >        2        8       28       29       33 </v>
   <v type="int" >        2        8       29       33       34 </v>
   <v type="int" >        2        2        3        7       28 </v>
   <v type="int" >        2        3        7        8       28 </v>
   <v type="int" >        2        7        8       28       33 </v>
   <v type="int" >        2        2        7       27       28 </v>
   <v type="int" >        2        7       27       28       32 </v>
   <v type="int" >        2        7       28       32       33 </v>
   <v type="int" >        2        1        2        6       27 </v>
   <v type="int" >        2        2        6        7       27 </v>
   <v type="int" >        2        6        7       27       32 </v>
   <v type="int" >        2        1        6       26       27 </v>
   <v type="int" >        2        6       26       27       31 </v>
   <v type="int" >        2        6       27       31       32 </v>
   <v type="int" >        2        6        7       12       31 </v>
   <v type="int" >        2        6       11       12       31 </v>
   <v type="int" >        2       11       12       31       36 </v>
   <v type="int" >        2        7       12       31       32 </v>
   <v type="int" >        2       12       31       32       37 </v>
   <v type="int" >        2       12       31       36       37 </v>
   <v type="int" >        2        7        8       13       32 </v>
   <v type="int" >        2        7       12       13       32 </v>
   <v type="int" >        2       12       13       32       37 </v>
   <v type="int" >        2        8       13       32       33 </v>
   <v type="int" >        2       13       32       33       38 </v>
   <v type="int" >        2       13       32       37       38 </v>
   <v type="int" >        2        8        9       14       33 </v>
   <v type="int" >        2        8       13       14       33 </v>
   <v type="int" >        2       13       14       33       38 </v>
   <v type="int" >        2        9       14       33       34 </v>
   <v type="int" >        2       14       33       34       39 </v>
   <v type="int" >        2       14       33       38       39 </v>
   <v type="int" >        2        9       10       15       34 </v>
   <v type="int" >        2        9       14       15       34 </v>
   <v type="int" >        2       14       15       34       39 </v>
   <v type="int" >        2       10       15       34       35 </v>
   <v type="int" >        2       15       34       35       40 </v>
   <v type="int" >        2       15       34       39       40 </v>
   <v type="int" >        2        9       10       14       35 </v>
   <v type="int" >        2       10       14       15       35 </v>
   <v type="int" >        2       14       15       35       40 </v>
   <v type="int" >        2        9       14       34       35 </v>
   <v type="int" >        2       14       34       35       39 </v>
   <v type="int" >        2       14       35       39       40 </v>
   <v type="int" >        2        8        9       13       34 </v>
   <v type="int" >        2        9       13       14       34 </v>
   <v type="int" >        2       13       14       34       39 </v>
   <v type="int" >        2        8       13       33       34 </v>
   <v type="int" >        2       13       33       34       38 </v>
   <v type="int" >        2       13       34       38       39 </v>
   <v type="int" >        2        7        8       12       33 </v>
   <v type="int" >        2        8       12       13       33 </v>
   <v type="int" >        2       12       13       33       38 </v>
   <v type="int" >        2        7       12       32       33 </v>
   <v type="int" >        2       12       32       33       37 </v>
   <v type="int" >        2       12       33       37       38 </v>
   <v type="int" >        2        6        7       11       32 </v>
   <v type="int" >        2        7       11       12       32 </v>
   <v type="int" >        2       11       12       32       37 </v>
   <v type="int" >        2        6       11       31       32 </v>
   <v type="int" >        2       11       31       32       36 </v>
   <v type="int" >        2       11       32       36       37 </v>
   <v type="int" >        2       11       12       17       36 </v>
   <v type="int" >        2       11       16       17       36 </v>
   <v type="int" >        2       16       17       36       41 </v>
   <v type="int" >        2       12       17       36       37 </v>
   <v type="int" >        2       17       36       37       42 </v>
   <v type="int" >        2       17       36       41       42 </v>
   <v type="int" >        2       12       13       18       37 </v>
   <v type="int" >        2       12       17       18       37 </v>
   <v type="int" >        2       17       18       37       42 </v>
   <v type="int" >        2       13       18       37       38 </v>
   <v type="int" >        2       18       37       38       43 </v>
   <v type="int" >        2       18       37       42       43 </v>
   <v type="int" >        2       13       14       19       38 </v>
   <v type="int" >        2       13       18       19       38 </v>
   <v type="int" >        2       18       19       38       43 </v>
   <v type="int" >        2       14       19       38       39 </v>
   <v type="int" >        2       19       38       39       44 </v>
   <v type="int" >        2       19       38       43       44 </v>
   <v type="int" >        2       14       15       20       39 </v>
   <v type="int" >        2       14       19       20       39 </v>
   <v type="int" >        2       19       20       39       44 </v>
   <v type="int" >        2       15       20       39       40 </v>
   <v type="int" >        2       20       39       40       45 </v>
   <v type="int" >        2       20       39       44       45 </v>
   <v type="int" >        2       14       15       19       40 </v>
   <v type="int" >        2       15       19       20       40 </v>
   <v type="int" >        2       19       20       40       45 </v>
   <v type="int" >        2       14       19       39       40 </v>
   <v type="int" >        2       19       39       40       44 </v>
   <v type="int" >        2       19       40       44       45 </v>
   <v type="int" >        2       13       14       18       39 </v>
   <v type="int" >        2       14       18       19       39 </v>
   <v type="int" >        2       18       19       39       44 </v>
   <v type="int" >        2       13       18       38       39 </v>
   <v type="int" >        2       18       38       39       43 </v>
   <v type="int" >        2       18       39       43       44 </v>
   <v type="int" >        2       12       13       17       38 </v>
   <v type="int" >        2       13       17       18       38 </v>
   <v type="int" >        2       17       18       38       43 </v>
   <v type="int" >        2       12       17       37       38 </v>
   <v type="int" >        2       17       37       38       42 </v>
   <v type="int" >        2       17       38       42       43 </v>
   <v type="int" >        2       11       12       16       37 </v>
   <v type="int" >        2       12       16       17       37 </v>
   <v type="int" >        2       16       17       37       42 </v>
   <v type="int" >        2       11       16       36       37 </v>
   <v type="int" >        2       16       36       37       41 </v>
   <v type="int" >        2       16       37       41       42 </v>
   <v type="int" >        2       16       17       22       41 </v>
   <v type="int" >        2       16       21       22       41 </v>
   <v type="int" >        2       21       22       41       46 </v>
   <v type="int" >        2       17       22       41       42 </v>
   <v type="int" >        2       22       41       42       47 </v>
   <v type="int" >        2       22       41       46       47 </v>
   <v type="int" >        2       17       18       23       42 </v>
   <v type="int" >        2       17       22       23       42 </v>
   <v type="int" >        2       22       23       42       47 </v>
   <v type="int" >        2       18       23       42       43 </v>
   <v type="int" >        2       23       42       43       48 </v>
   <v type="int" >        2       23       42       47       48 </v>
   <v type="int" >        2       18       19       24       43 </v>
   <v type="int" >        2       18       23       24       43 </v>
   <v type="int" >        2       23       24       43       48 </v>
   <v type="int" >        2       19       24       43       44 </v>
   <v type="int" >        2       24       43       44       49 </v>
   <v type="int" >        2       24       43       48       49 </v>
   <v type="int" >        2       19       20       25       44 </v>
   <v type="int" >        2       19       24       25       44 </v>
   <v type="int" >        2       24       25       44       49 </v>
   <v type="int" >        2       20       25       44       45 </v>
   <v type="int" >        2       25       44       45       50 </v>
   <v type="int" >        2       25       44       49       50 </v>
   <v type="int" >        2       19       20       24       45 </v>
   <v type="int" >        2       20       24       25       45 </v>
   <v type="int" >        2       24       25       45       50 </v>
   <v type="int" >        2       19       24       44       45 </v>
   <v type="int" >        2       24       44       45       49 </v>
   <v type="int" >        2       24       45       49       50 </v>
   <v type="int" >        2       18       19       23       44 </v>
   <v type="int" >        2       19       23       24       44 </v>
   <v type="int" >        2       23       24       44       49 </v>
   <v type="int" >        2       18       23       43       44 </v>
   <v type="int" >        2       23       43       44       48 </v>
   <v type="int" >        2       23       44       48       49 </v>
   <v type="int" >        2       17       18       22       43 </v>
   <v type="int" >        2       18       22       23       43 </v>
   <v type="int" >        2       22       23       43       48 </v>
   <v type="int" >        2       17       22       42       43 </v>
   <v type="int" >        2       22       42       43       47 </v>
   <v type="int" >        2       22       43       47       48 </v>
   <v type="int" >        2       16       17       21       42 </v>
   <v type="int" >        2       17       21       22       42 </v>
   <v type="int" >        2       21       22       42       47 </v>
   <v type="int" >        2       16       21       41       42 </v>
   <v type="int" >        2       21       41       42       46 </v>
   <v type="int" >        2       21       42       46       47 </v>
   <v type="int" >        2       17       21       22       46 </v>
   <v type="int" >        2       16       17       21       46 </v>
   <v type="int" >        2       16       17       41       46 </v>
   <v type="int" >        2       17       22       46       47 </v>
   <v type="int" >        2       17       42       46       47 </v>
   <v type="int" >        2       17       41       42       46 </v>
   <v type="int" >        2       18       22       23       47 </v>
   <v type="int" >        2       17       18       22       47 </v>
   <v type="int" >        2       17       18       42       47 </v>
   <v type="int" >        2       18       23       47       48 </v>
   <v type="int" >        2       18       43       47       48 </v>
   <v type="int" >        2       18       42       43       47 </v>
   <v type="int" >        2       19       23       24       48 </v>
   <v type="int" >        2       18       19       23       48 </v>
   <v type="int" >        2       18       19       43       48 </v>
   <v type="int" >        2       19       24       48       49 </v>
   <v type="int" >        2       19       44       48       49 </v>
   <v type="int" >        2       19       43       44       48 </v>
   <v type="int" >        2       20       24       25       49 </v>
   <v type="int" >        2       19       20       24       49 </v>
   <v type="int" >        2       19       20       44       49 </v>
   <v type="int" >        2       20       25       49       50 </v>
   <v type="int" >        2       20       45       49       50 </v>
   <v type="int" >        2       20       44       45       49 </v>
   <v type="int" >        2       19       24       25       50 </v>
   <v type="int" >        2       19       20       25       50 </v>
   <v type="int" >        2       19       20       45       50 </v>
   <v type="int" >        2       19       24       49       50 </v>
   <v type="int" >        2       19       44       49       50 </v>
   <v type="int" >        2       19       44       45       50 </v>
   <v type="int" >        2       18       23       24       49 </v>
   <v type="int" >        2       18       19       24       49 </v>
   <v type="int" >        2       18       19       44       49 </v>
   <v type="int" >        2       18       23       48       49 </v>
   <v type="int" >        2       18       43       48       49 </v>
   <v type="int" >        2       18       43       44       49 </v>
   <v type="int" >        2       17       22       23       48 </v>
   <v type="int" >        2       17       18       23       48 </v>
   <v type="int" >        2       17       18       43       48 </v>
   <v type="int" >        2       17       22       47       48 </v>
   <v type="int" >        2       17       42       47       48 </v>
   <v type="int" >        2       17       42       43       48 </v>
   <v type="int" >        2       16       21       22       47 </v>
   <v type="int" >        2       16       17       22       47 </v>
   <v type="int" >        2       16       17       42       47 </v>
   <v type="int" >        2       16       21       46       47 </v>
   <v type="int" >        2       16       41       46       47 </v>
   <v type="int" >        2       16       41       42       47 </v>
   <v type="int" >        2       12       16       17       41 </v>
   <v type="int" >        2       11       12       16       41 </v>
   <v type="int" >        2       11       12       36       41 </v>
   <v type="int" >        2       12       17       41       42 </v>
   <v type="int" >        2       12       37       41       42 </v>
   <v type="int" >        2       12       36       37       41 </v>
   <v type="int" >        2       13       17       18       42 </v>
   <v type="int" >        2       12       13       17       42 </v>
   <v type="int" >        2       12       13       37       42 </v>
   <v type="int" >        2       13       18       42       43 </v>
   <v type="int" >        2       13       38       42       43 </v>
   <v type="int" >        2       13       37       38       42 </v>
   <v type="int" >        2       14       18       19       43 </v>
   <v type="int" >        2       13       14       18       43 </v>
   <v type="int" >        2       13       14       38       43 </v>
   <v type="int" >        2       14       19       43       44 </v>
   <v type="int" >        2       14       39       43       44 </v>
   <v type="int" >        2       14       38       39       43 </v>
   <v type="int" >        2       15       19       20       44 </v>
   <v type="int" >        2       14       15       19       44 </v>
   <v type="int" >        2       14       15       39       44 </v>
   <v type="int" >        2       15       20       44       45 </v>
   <v type="int" >        2       15       40       44       45 </v>
   <v type="int" >        2       15       39       40       44 </v>
   <v type="int" >        2       14       19       20       45 </v>
   <v type="int" >        2       14       15       20       45 </v>
   <v type="int" >        2       14       15       40       45 </v>
   <v type="int" >        2       14       19       44       45 </v>
   <v type="int" >        2       14       39       44       45 </v>
   <v type="int" >        2       14       39       40       45 </v>
   <v type="int" >        2       13       18       19       44 </v>
   <v type="int" >        2       13       14       19       44 </v>
   <v type="int" >        2       13       14       39       44 </v>
   <v type="int" >        2       13       18       43       44 </v>
   <v type="int" >        2       13       38       43       44 </v>
   <v type="int" >        2       13       38       39       44 </v>
   <v type="int" >        2       12       17       18       43 </v>
   <v type="int" >        2       12       13       18       43 </v>
   <v type="int" >        2       12       13       38       43 </v>
   <v type="int" >        2       12       17       42       43 </v>
   <v type="int" >        2       12       37       42       43 </v>
   <v type="int" >        2       12       37       38       43 </v>
   <v type="int" >        2       11       16       17       42 </v>
   <v type="int" >        2       11       12       17       42 </v>
   <v type="int" >        2       11       12       37       42 </v>
   <v type="int" >        2       11       16       41       42 </v>
   <v type="int" >        2       11       36       41       42 </v>
   <v type="int" >        2       11       36       37       42 </v>
   <v type="int" >        2        7       11       12       36 </v>
   <v type="int" >        2        6        7       11       36 </v>
   <v type="int" >        2        6        7       31       36 </v>
   <v type="int" >        2        7       12       36       37 </v>
   <v type="int" >        2        7       32       36       37 </v>
   <v type="int" >        2        7       31       32       36 </v>
   <v type="int" >        2        8       12       13       37 </v>
   <v type="int" >        2        7        8       12       37 </v>
   <v type="int" >        2        7        8       32       37 </v>
   <v type="int" >        2        8       13       37       38 </v>
   <v type="int" >        2        8       33       37       38 </v>
   <v type="int" >        2        8       32       33       37 </v>
   <v type="int" >        2        9       13       14       38 </v>
   <v type="int" >        2        8        9       13       38 </v>
   <v type="int" >        2        8        9       33       38 </v>
   <v type="int" >        2        9       14       38       39 </v>
   <v type="int" >        2        9       34       38       39 </v>
   <v type="int" >        2        9       33       34       38 </v>
   <v type="int" >        2       10       14       15       39 </v>
   <v type="int" >        2        9       10       14       39 </v>
   <v type="int" >        2        9       10       34       39 </v>
   <v type="int" >        2       10       15       39       40 </v>
   <v type="int" >        2       10       35       39       40 </v>
   <v type="int" >        2       10       34       35       39 </v>
   <v type="int" >        2        9       14       15       40 </v>
   <v type="int" >        2        9       10       15       40 </v>
   <v type="int" >        2        9       10       35       40 </v>
   <v type="int" >        2        9       14       39       40 </v>
   <v type="int" >        2        9       34       39       40 </v>
   <v type="int" >        2        9       34       35       40 </v>
   <v type="int" >        2        8       13       14       39 </v>
   <v type="int" >        2        8        9       14       39 </v>
   <v type="int" >        2        8        9       34       39 </v>
   <v type="int" >        2        8       13       38       39 </v>
   <v type="int" >        2        8       33       38       39 </v>
   <v type="int" >        2        8       33       34       39 </v>
   <v type="int" >        2        7       12       13       38 </v>
   <v type="int" >        2        7        8       13       38 </v>
   <v type="int" >        2        7        8       33       38 </v>
   <v type="int" >        2        7       12       37       38 </v>
   <v type="int" >        2        7       32       37       38 </v>
   <v type="int" >        2        7       32       33       38 </v>
   <v type="int" >        2        6       11       12       37 </v>
   <v type="int" >        2        6        7       12       37 </v>
   <v type="int" >        2        6        7       32       37 </v>
   <v type="int" >        2        6       11       36       37 </v>
   <v type="int" >        2        6       31       36       37 </v>
   <v type="int" >        2        6       31       32       37 </v>
   <v type="int" >        2        2        6        7       31 </v>
   <v type="int" >        2        1        2        6       31 </v>
   <v type="int" >        2        1        2       26       31 </v>
   <v type="int" >        2        2        7       31       32 </v>
   <v type="int" >        2        2       27       31       32 </v>
   <v type="int" >        2        2       26       27       31 </v>
   <v type="int" >        2        3        7        8       32 </v>
   <v type="int" >        2        2        3        7       32 </v>
   <v type="int" >        2        2        3       27       32 </v>
   <v type="int" >        2        3        8       32       33 </v>
   <v type="int" >        2        3       28       32       33 </v>
   <v type="int" >        2        3       27       28       32 </v>
   <v type="int" >        2        4        8        9       33 </v>
   <v type="int" >        2        3        4        8       33 </v>
   <v type="int" >        2        3        4       28       33 </v>
   <v type="int" >        2        4        9       33       34 </v>
   <v type="int" >        2        4       29       33       34 </v>
   <v type="int" >        2        4       28       29       33 </v>
   <v type="int" >        2        5        9       10       34 </v>
   <v type="int" >        2        4        5        9       34 </v>
   <v type="int" >        2        4        5       29       34 </v>
   <v type="int" >        2        5       10       34       35 </v>
   <v type="int" >        2        5       30       34       35 </v>
   <v type="int" >        2        5       29       30       34 </v>
   <v type="int" >        2        4        9       10       35 </v>
   <v type="int" >        2        4        5       10       35 </v>
   <v type="int" >        2        4        5       30       35 </v>
   <v type="int" >        2        4        9       34       35 </v>
   <v type="int" >        2        4       29       34       35 </v>
   <v type="int" >        2        4       29       30       35 </v>
   <v type="int" >        2        3        8        9       34 </v>
   <v type="int" >        2        3        4        9       34 </v>
   <v type="int" >        2        3        4       29       34 </v>
   <v type="int" >        2        3        8       33       34 </v>
   <v type="int" >        2        3       28       33       34 </v>
   <v type="int" >        2        3       28       29       34 </v>
   <v type="int" >        2        2        7        8       33 </v>
   <v type="int" >        2        2        3        8       33 </v>
   <v type="int" >        2        2        3       28       33 </v>
   <v type="int" >        2        2        7       32       33 </v>
   <v type="int" >        2        2       27       32       33 </v>
   <v type="int" >        2        2       27       28       33 </v>
   <v type="int" >        2        1        6        7       32 </v>
   <v type="int" >        2        1        2        7       32 </v>
   <v type="int" >        2        1        2       27       32 </v>
   <v type="int" >        2        1        6       31       32 </v>
   <v type="int" >        2        1       26       31       32 </v>
   <v type="int" >        2        1       26       27       32 </v>
   <v type="int" >        2       26       27       32       51 </v>
   <v type="int" >        2       26       31       32       51 </v>
   <v type="int" >        2       31       32       51       56 </v>
   <v type="int" >        2       27       32       51       52 </v>
   <v type="int" >        2       32       51       52       57 </v>
   <v type="int" >        2       32       51       56       57 </v>
   <v type="int" >        2       27       28       33       52 </v>
   <v type="int" >        2       27       32       33       52 </v>
   <v type="int" >        2       32       33       52       57 </v>
   <v type="int" >        2       28       33       52       53 </v>
   <v type="int" >        2       33       52       53       58 </v>
   <v type="int" >        2       33       52       57       58 </v>
   <v type="int" >        2       28       29       34       53 </v>
   <v type="int" >        2       28       33       34       53 </v>
   <v type="int" >        2       33       34       53       58 </v>
   <v type="int" >        2       29       34       53       54 </v>
   <v type="int" >        2       34       53       54       59 </v>
   <v type="int" >        2       34       53       58       59 </v>
   <v type="int" >        2       29       30       35       54 </v>
   <v type="int" >        2       29       34       35       54 </v>
   <v type="int" >        2       34       35       54       59 </v>
   <v type="int" >        2       30       35       54       55 </v>
   <v type="int" >        2       35       54       55       60 </v>
   <v type="int" >        2       35       54       59       60 </v>
   <v type="int" >        2       29       30       34       55 </v>
   <v type="int" >        2       30       34       35       55 </v>
   <v type="int" >        2       34       35       55       60 </v>
   <v type="int" >        2       29       34       54       55 </v>
   <v type="int" >        2       34       54       55       59 </v>
   <v type="int" >        2       34       55       59       60 </v>
   <v type="int" >        2       28       29       33       54 </v>
   <v type="int" >        2       29       33       34       54 </v>
   <v type="int" >        2       33       34       54       59 </v>
   <v type="int" >        2       28       33       53       54 </v>
   <v type="int" >        2       33       53       54       58 </v>
   <v type="int" >        2       33       54       58       59 </v>
   <v type="int" >        2       27       28       32       53 </v>
   <v type="int" >        2       28       32       33       53 </v>
   <v type="int" >        2       32       33       53       58 </v>
   <v type="int" >        2       27       32       52       53 </v>
   <v type="int" >        2       32       52       53       57 </v>
   <v type="int" >        2       32       53       57       58 </v>
   <v type="int" >        2       26       27       31       52 </v>
   <v type="int" >        2       27       31       32       52 </v>
   <v type="int" >        2       31       32       52       57 </v>
   <v type="int" >        2       26       31       51       52 </v>
   <v type="int" >        2       31       51       52       56 </v>
   <v type="int" >        2       31       52       56       57 </v>
   <v type="int" >        2       31       32       37       56 </v>
   <v type="int" >        2       31       36       37       56 </v>
   <v type="int" >        2       36       37       56       61 </v>
   <v type="int" >        2       32       37       56       57 </v>
   <v type="int" >        2       37       56       57       62 </v>
   <v type="int" >        2       37       56       61       62 </v>
   <v type="int" >        2       32       33       38       57 </v>
   <v type="int" >        2       32       37       38       57 </v>
   <v type="int" >        2       37       38       57       62 </v>
   <v type="int" >        2       33       38       57       58 </v>
   <v type="int" >        2       38       57       58       63 </v>
   <v type="int" >        2       38       57       62       63 </v>
   <v type="int" >        2       33       34       39       58 </v>
   <v type="int" >        2       33       38       39       58 </v>
   <v type="int" >        2       38       39       58       63 </v>
   <v type="int" >        2       34       39       58       59 </v>
   <v type="int" >        2       39       58       59       64 </v>
   <v type="int" >        2       39       58       63       64 </v>
   <v type="int" >        2       34       35       40       59 </v>
   <v type="int" >        2       34       39       40       59 </v>
   <v type="int" >        2       39       40       59       64 </v>
   <v type="int" >        2       35       40       59       60 </v>
   <v type="int" >        2       40       59       60       65 </v>
   <v type="int" >        2       40       59       64       65 </v>
   <v type="int" >        2       34       35       39       60 </v>
   <v type="int" >        2       35       39       40       60 </v>
   <v type="int" >        2       39       40       60       65 </v>
   <v type="int" >        2       34       39       59       60 </v>
   <v type="int" >        2       39       59       60       64 </v>
   <v type="int" >        2       39       60       64       65 </v>
   <v type="int" >        2       33       34       38       59 </v>
   <v type="int" >        2       34       38       39       59 </v>
   <v type="int" >        2       38       39       59       64 </v>
   <v type="int" >        2       33       38       58       59 </v>
   <v type="int" >        2       38       58       59       63 </v>
   <v type="int" >        2       38       59       63       64 </v>
   <v type="int" >        2       32       33       37       58 </v>
   <v type="int" >        2       33       37       38       58 </v>
   <v type="int" >        2       37       38       58       63 </v>
   <v type="int" >        2       32       37       57       58 </v>
   <v type="int" >        2       37       57       58       62 </v>
   <v type="int" >        2       37       58       62       63 </v>
   <v type="int" >        2       31       32       36       57 </v>
   <v type="int" >        2       32       36       37       57 </v>
   <v type="int" >        2       36       37       57       62 </v>
   <v type="int" >        2       31       36       56       57 </v>
   <v type="int" >        2       36       56       57       61 </v>
   <v type="int" >        2       36       57       61       62 </v>
   <v type="int" >        2       36       37       42       61 </v>
   <v type="int" >        2       36       41       42       61 </v>
   <v type="int" >        2       41       42       61       66 </v>
   <v type="int" >        2       37       42       61       62 </v>
   <v type="int" >        2       42       61       62       67 </v>
   <v type="int" >        2       42       61       66       67 </v>
   <v type="int" >        2       37       38       43       62 </v>
   <v type="int" >        2       37       42       43       62 </v>
   <v type="int" >        2       42       43       62       67 </v>
   <v type="int" >        2       38       43       62       63 </v>
   <v type="int" >        2       43       62       63       68 </v>
   <v type="int" >        2       43       62       67       68 </v>
   <v type="int" >        2       38       39       44       63 </v>
   <v type="int" >        2       38       43       44       63 </v>
   <v type="int" >        2       43       44       63       68 </v>
   <v type="int" >        2       39       44       63       64 </v>
   <v type="int" >        2       44       63       64       69 </v>
   <v type="int" >        2       44       63       68       69 </v>
   <v type="int" >        2       39       40       45       64 </v>
   <v type="int" >        2       39       44       45       64 </v>
   <v type="int" >        2       44       45       64       69 </v>
   <v type="int" >        2       40       45       64       65 </v>
   <v type="int" >        2       45       64       65       70 </v>
   <v type="int" >        2       45       64       69       70 </v>
   <v type="int" >        2       39       40       44       65 </v>
   <v type="int" >        2       40       44       45       65 </v>
   <v type="int" >        2       44       45       65       70 </v>
   <v type="int" >        2       39       44       64       65 </v>
   <v type="int" >        2       44       64       65       69 </v>
   <v type="int" >        2       44       65       69       70 </v>
   <v type="int" >        2       38       39       43       64 </v>
   <v type="int" >        2       39       43       44       64 </v>
   <v type="int" >        2       43       44       64       69 </v>
   <v type="int" >        2       38       43       63       64 </v>
   <v type="int" >        2       43       63       64       68 </v>
   <v type="int" >        2       43       64       68       69 </v>
   <v type="int" >        2       37       38       42       63 </v>
   <v type="int" >        2       38       42       43       63 </v>
   <v type="int" >        2       42       43       63       68 </v>
   <v type="int" >        2       37       42       62       63 </v>
   <v type="int" >        2       42       62       63       67 </v>
   <v type="int" >        2       42       63       67       68 </v>
   <v type="int" >        2       36       37       41       62 </v>
   <v type="int" >        2       37       41       42       62 </v>
   <v type="int" >        2       41       42       62       67 </v>
   <v type="int" >        2       36       41       61       62 </v>
   <v type="int" >        2       41       61       62       66 </v>
   <v type="int" >        2       41       62       66       67 </v>
   <v type="int" >        2       41       42       47       66 </v>
   <v type="int" >        2       41       46       47       66 </v>
   <v type="int" >        2       46       47       66       71 </v>
   <v type="int" >        2       42       47       66       67 </v>
   <v type="int" >        2       47       66       67       72 </v>
   <v type="int" >        2       47       66       71       72 </v>
   <v type="int" >        2       42       43       48       67 </v>
   <v type="int" >        2       42       47       48       67 </v>
   <v type="int" >        2       47       48       67       72 </v>
   <v type="int" >        2       43       48       67       68 </v>
   <v type="int" >        2       48       67       68       73 </v>
   <v type="int" >        2       48       67       72       73 </v>
   <v type="int" >        2       43       44       49       68 </v>
   <v type="int" >        2       43       48       49       68 </v>
   <v type="int" >        2       48       49       68       73 </v>
   <v type="int" >        2       44       49       68       69 </v>
   <v type="int" >        2       49       68       69       74 </v>
   <v type="int" >        2       49       68       73       74 </v>
   <v type="int" >        2       44       45       50       69 </v>
   <v type="int" >        2       44       49       50       69 </v>
   <v type="int" >        2       49       50       69       74 </v>
   <v type="int" >        2       45       50       69       70 </v>
   <v type="int" >        2       50       69       70       75 </v>
   <v type="int" >        2       50       69       74       75 </v>
   <v type="int" >        2       44       45       49       70 </v>
   <v type="int" >        2       45       49       50       70 </v>
   <v type="int" >        2       49       50       70       75 </v>
   <v type="int" >        2       44       49       69       70 </v>
   <v type="int" >        2       49       69       70       74 </v>
   <v type="int" >        2       49       70       74       75 </v>
   <v type="int" >        2       43       44       48       69 </v>
   <v type="int" >        2       44       48       49       69 </v>
   <v type="int" >        2       48       49       69       74 </v>
   <v type="int" >        2       43       48       68       69 </v>
   <v type="int" >        2       48       68       69       73 </v>
   <v type="int" >        2       48       69       73       74 </v>
   <v type="int" >        2       42       43       47       68 </v>
   <v type="int" >        2       43       47       48       68 </v>
   <v type="int" >        2       47       48       68       73 </v>
   <v type="int" >        2       42       47       67       68 </v>
   <v type="int" >        2       47       67       68       72 </v>
   <v type="int" >        2       47       68       72       73 </v>
   <v type="int" >        2       41       42       46       67 </v>
   <v type="int" >        2       42       46       47       67 </v>
   <v type="int" >        2       46       47       67       72 </v>
   <v type="int" >        2       41       46       66       67 </v>
   <v type="int" >        2       46       66       67       71 </v>
   <v type="int" >        2       46       67       71       72 </v>
   <v type="int" >        2       42       46       47       71 </v>
   <v type="int" >        2       41       42       46       71 </v>
   <v type="int" >        2       41       42       66       71 </v>
   <v type="int" >        2       42       47       71       72 </v>
   <v type="int" >        2       42       67       71       72 </v>
   <v type="int" >        2       42       66       67       71 </v>
   <v type="int" >        2       43       47       48       72 </v>
   <v type="int" >        2       42       43       47       72 </v>
   <v type="int" >        2       42       43       67       72 </v>
   <v type="int" >        2       43       48       72       73 </v>
   <v type="int" >        2       43       68       72       73 </v>
   <v type="int" >        2       43       67       68       72 </v>
   <v type="int" >        2       44       48       49       73 </v>
   <v type="int" >        2       43       44       48       73 </v>
   <v type="int" >        2       43       44       68       73 </v>
   <v type="int" >        2       44       49       73       74 </v>
   <v type="int" >        2       44       69       73       74 </v>
   <v type="int" >        2       44       68       69       73 </v>
   <v type="int" >        2       45       49       50       74 </v>
   <v type="int" >        2       44       45       49       74 </v>
   <v type="int" >        2       44       45       69       74 </v>
   <v type="int" >        2       45       50       74       75 </v>
   <v type="int" >        2       45       70       74       75 </v>
   <v type="int" >        2       45       69       70       74 </v>
   <v type="int" >        2       44       49       50       75 </v>
   <v type="int" >        2       44       45       50       75 </v>
   <v type="int" >        2       44       45       70       75 </v>
   <v type="int" >        2       44       49       74       75 </v>
   <v type="int" >        2       44       69       74       75 </v>
   <v type="int" >        2       44       69       70       75 </v>
   <v type="int" >        2       43       48       49       74 </v>
   <v type="int" >        2       43       44       49       74 </v>
   <v type="int" >        2       43       44       69       74 </v>
   <v type="int" >        2       43       48       73       74 </v>
   <v type="int" >        2       43       68       73       74 </v>
   <v type="int" >        2       43       68       69       74 </v>
   <v type="int" >        2       42       47       48       73 </v>
   <v type="int" >        2       42       43       48       73 </v>
   <v type="int" >        2       42       43       68       73 </v>
   <v type="int" >        2       42       47       72       73 </v>
   <v type="int" >        2       42       67       72       73 </v>
   <v type="int" >        2       42       67       68       73 </v>
   <v type="int" >        2       41       46       47       72 </v>
   <v type="int" >        2       41       42       47       72 </v>
   <v type="int" >        2       41       42       67       72 </v>
   <v type="int" >        2       41       46       71       72 </v>
   <v type="int" >        2       41       66       71       72 </v>
   <v type="int" >        2       41       66       67       72 </v>
   <v type="int" >        2       37       41       42       66 </v>
   <v type="int" >        2       36       37       41       66 </v>
   <v type="int" >        2       36       37       61       66 </v>
   <v type="int" >        2       37       42       66       67 </v>
   <v type="int" >        2       37       62       66       67 </v>
   <v type="int" >        2       37       61       62       66 </v>
   <v type="int" >        2       38       42       43       67 </v>
   <v type="int" >        2       37       38       42       67 </v>
   <v type="int" >        2       37       38       62       67 </v>
   <v type="int" >        2       38       43       67       68 </v>
   <v type="int" >        2       38       63       67       68 </v>
   <v type="int" >        2       38       62       63       67 </v>
   <v type="int" >        2       39       43       44       68 </v>
   <v type="int" >        2       38       39       43       68 </v>
   <v type="int" >        2       38       39       63       68 </v>
   <v type="int" >        2       39       44       68       69 </v>
   <v type="int" >        2       39       64       68       69 </v>
   <v type="int" >        2       39       63       64       68 </v>
   <v type="int" >        2       40       44       45       69 </v>
   <v type="int" >        2       39       40       44       69 </v>
   <v type="int" >        2       39       40       64       69 </v>
   <v type="int" >        2       40       45       69       70 </v>
   <v type="int" >        2       40       65       69       70 </v>
   <v type="int" >        2       40       64       65       69 </v>
   <v type="int" >        2       39       44       45       70 </v>
   <v type="int" >        2       39       40       45       70 </v>
   <v type="int" >        2       39       40       65       70 </v>
   <v type="int" >        2       39       44       69       70 </v>
   <v type="int" >        2       39       64       69       70 </v>
   <v type="int" >        2       39       64       65       70 </v>
   <v type="int" >        2       38       43       44       69 </v>
   <v type="int" >        2       38       39       44       69 </v>
   <v type="int" >        2       38       39       64       69 </v>
   <v type="int" >        2       38       43       68       69 </v>
   <v type="int" >        2       38       63       68       69 </v>
   <v type="int" >        2       38       63       64       69 </v>
   <v type="int" >        2       37       42       43       68 </v>
   <v type="int" >        2       37       38       43       68 </v>
   <v type="int" >        2       37       38       63       68 </v>
   <v type="int" >        2       37       42       67       68 </v>
   <v type="int" >        2       37       62       67       68 </v>
   <v type="int" >        2       37       62       63       68 </v>
   <v type="int" >        2       36       41       42       67 </v>
   <v type="int" >        2       36       37       42       67 </v>
   <v type="int" >        2       36       37       62       67 </v>
   <v type="int" >        2       36       41       66       67 </v>
   <v type="int" >        2       36       61       66       67 </v>
   <v type="int" >        2       36       61       62       67 </v>
   <v type="int" >        2       32       36       37       61 </v>
   <v type="int" >        2       31       32       36       61 </v>
   <v type="int" >        2       31       32       56       61 </v>
   <v type="int" >        2       32       37       61       62 </v>
   <v type="int" >        2       32       57       61       62 </v>
   <v type="int" >        2       32       56       57       61 </v>
   <v type="int" >        2       33       37       38       62 </v>
   <v type="int" >        2       32       33       37       62 </v>
   <v type="int" >        2       32       33       57       62 </v>
   <v type="int" >        2       33       38       62       63 </v>
   <v type="int" >        2       33       58       62       63 </v>
   <v type="int" >        2       33       57       58       62 </v>
   <v type="int" >        2       34       38       39       63 </v>
   <v type="int" >        2       33       34       38       63 </v>
   <v type="int" >        2       33       34       58       63 </v>
   <v type="int" >        2       34       39       63       64 </v>
   <v type="int" >        2       34       59       63       64 </v>
   <v type="int" >        2       34       58       59       63 </v>
   <v type="int" >        2       35       39       40       64 </v>
   <v type="int" >        2       34       35       39       64 </v>
   <v type="int" >        2       34       35       59       64 </v>
   <v type="int" >        2       35       40       64       65 </v>
   <v type="int" >        2       35       60       64       65 </v>
   <v type="int" >        2       35       59       60       64 </v>
   <v type="int" >        2       34       39       40       65 </v>
   <v type="int" >        2       34       35       40       65 </v>
   <v type="int" >        2       34       35       60       65 </v>
   <v type="int" >        2       34       39       64       65 </v>
   <v type="int" >        2       34       59       64       65 </v>
   <v type="int" >        2       34       59       60       65 </v>
   <v type="int" >        2       33       38       39       64 </v>
   <v type="int" >        2       33       34       39       64 </v>
   <v type="int" >        2       33       34       59       64 </v>
   <v type="int" >        2       33       38       63       64 </v>
   <v type="int" >        2       33       58       63       64 </v>
   <v type="int" >        2       33       58       59       64 </v>
   <v type="int" >        2       32       37       38       63 </v>
   <v type="int" >        2       32       33       38       63 </v>
   <v type="int" >        2       32       33       58       63 </v>
   <v type="int" >        2       32       37       62       63 </v>
   <v type="int" >        2       32       57       62       63 </v>
   <v type="int" >        2       32       57       58       63 </v>
   <v type="int" >        2       31       36       37       62 </v>
   <v type="int" >        2       31       32       37       62 </v>
   <v type="int" >        2       31       32       57       62 </v>
   <v type="int" >        2       31       36       61       62 </v>
   <v type="int" >        2       31       56       61       62 </v>
   <v type="int" >        2       31       56       57       62 </v>
   <v type="int" >        2       27       31       32       56 </v>
   <v type="int" >        2       26       27       31       56 </v>
   <v type="int" >        2       26       27       51       56 </v>
   <v type="int" >        2       27       32       56       57 </v>
   <v type="int" >        2       27       52       56       57 </v>
   <v type="int" >        2       27       51       52       56 </v>
   <v type="int" >        2       28       32       33       57 </v>
   <v type="int" >        2       27       28       32       57 </v>
   <v type="int" >        2       27       28       52       57 </v>
   <v type="int" >        2       28       33       57       58 </v>
   <v type="int" >        2       28       53       57       58 </v>
   <v type="int" >        2       28       52       53       57 </v>
   <v type="int" >        2       29       33       34       58 </v>
   <v type="int" >        2       28       29       33       58 </v>
   <v type="int" >        2       28       29       53       58 </v>
   <v type="int" >        2       29       34       58       59 </v>
   <v type="int" >        2       29       54       58       59 </v>
   <v type="int" >        2       29       53       54       58 </v>
   <v type="int" >        2       30       34       35       59 </v>
   <v type="int" >        2       29       30       34       59 </v>
   <v type="int" >        2       29       30       54       59 </v>
   <v type="int" >        2       30       35       59       60 </v>
   <v type="int" >        2       30       55       59       60 </v>
   <v type="int" >        2       30       54       55       59 </v>
   <v type="int" >        2       29       34       35       60 </v>
   <v type="int" >        2       29       30       35       60 </v>
   <v type="int" >        2       29       30       55       60 </v>
   <v type="int" >        2       29       34       59       60 </v>
   <v type="int" >        2       29       54       59       60 </v>
   <v type="int" >        2       29       54       55       60 </v>
   <v type="int" >        2       28       33       34       59 </v>
   <v type="int" >        2       28       29       34       59 </v>
   <v type="int" >        2       28       29       54       59 </v>
   <v type="int" >        2       28       33       58       59 </v>
   <v type="int" >        2       28       53       58       59 </v>
   <v type="int" >        2       28       53       54       59 </v>
   <v type="int" >        2       27       32       33       58 </v>
   <v type="int" >        2       27       28       33       58 </v>
   <v type="int" >        2       27       28       53       58 </v>
   <v type="int" >        2       27       32       57       58 </v>
   <v type="int" >        2       27       52       57       58 </v>
   <v type="int" >        2       27       52       53       58 </v>
   <v type="int" >        2       26       31       32       57 </v>
   <v type="int" >        2       26       27       32       57 </v>
   <v type="int" >        2       26       27       52       57 </v>
   <v type="int" >        2       26       31       56       57 </v>
   <v type="int" >        2       26       51       56       57 </v>
   <v type="int" >        2       26       51       52       57 </v>
  </varray>
  <i name="volumeweight">      0.00065104 </i>
 </kpoints>
 <parameters>
  <separator name="general" >
   <i type="string" name="SYSTEM">SnSe</i>
   <i type="logical" name="LCOMPAT"> F  </i>
  </separator>
  <separator name="electronic" >
   <i type="string" name="PREC">accura</i>
   <i name="ENMAX">    600.00000000</i>
   <i name="ENAUG">    446.84200000</i>
   <i name="EDIFF">      0.00000010</i>
   <i type="int" name="IALGO">    38</i>
   <i type="int" name="IWAVPR">    11</i>
   <i type="int" name="NBANDS">    48</i>
   <i name="NELECT">     80.00000000</i>
   <i type="int" name="TURBO">     0</i>
   <i type="int" name="IRESTART">     0</i>
   <i type="int" name="NREBOOT">     0</i>
   <i type="int" name="NMIN">     0</i>
   <i name="EREF">      0.00000000</i>
   <separator name="electronic smearing" >
    <i type="int" name="ISMEAR">    -5</i>
    <i name="SIGMA">      0.20000000</i>
    <i name="KSPACING">      0.50000000</i>
    <i type="logical" name="KGAMMA"> T  </i>
   </separator>
   <separator name="electronic projectors" >
    <i type="logical" name="LREAL"> F  </i>
    <v name="ROPT">      0.00000000      0.00000000</v>
    <i type="int" name="LMAXPAW">  -100</i>
    <i type="int" name="LMAXMIX">     2</i>
    <i type="logical" name="NLSPLINE"> F  </i>
   </separator>
   <separator name="electronic startup" >
    <i type="int" name="ISTART">     0</i>
    <i type="int" name="ICHARG">     2</i>
    <i type="int" name="INIWAV">     1</i>
   </separator>
   <separator name="electronic spin" >
    <i type="int" name="ISPIN">     1</i>
    <i type="logical" name="LNONCOLLINEAR"> F  </i>
    <v name="MAGMOM">      1.00000000      1.00000000      1.00000000      1.00000000      1.00000000      1.00000000      1.00000000      1.00000000</v>
    <i name="NUPDOWN">     -1.00000000</i>
    <i type="logical" name="LSORBIT"> F  </i>
    <v name="SAXIS">      0.00000000      0.00000000      1.00000000</v>
    <i type="logical" name="LSPIRAL"> F  </i>
    <v name="QSPIRAL">      0.00000000      0.00000000      0.00000000</v>
    <i type="logical" name="LZEROZ"> F  </i>
   </separator>
   <separator name="electronic exchange-correlation" >
    <i type="logical" name="LASPH"> F  </i>
    <i type="logical" name="LMETAGGA"> F  </i>
   </separator>
   <separator name="electronic convergence" >
    <i type="int" name="NELM">    60</i>
    <i type="int" name="NELMDL">    -5</i>
    <i type="int" name="NELMIN">     2</i>
    <i name="ENINI">    600.00000000</i>
    <separator name="electronic convergence detail" >
     <i type="logical" name="LDIAG"> T  </i>
     <i type="logical" name="LSUBROT"> F  </i>
     <i name="WEIMIN">      0.00100000</i>
     <i name="EBREAK">      0.00000000</i>
     <i name="DEPER">      0.30000000</i>
     <i type="int" name="NRMM">     4</i>
     <i name="TIME">      0.40000000</i>
    </separator>
   </separator>
   <separator name="electronic mixer" >
    <i name="AMIX">      0.40000000</i>
    <i name="BMIX">      1.00000000</i>
    <i name="AMIN">      0.10000000</i>
    <i name="AMIX_MAG">      1.60000000</i>
    <i name="BMIX_MAG">      1.00000000</i>
    <separator name="electronic mixer details" >
     <i type="int" name="IMIX">     4</i>
     <i type="logical" name="MIXFIRST"> F  </i>
     <i type="int" name="MAXMIX">   -45</i>
     <i name="WC">    100.00000000</i>
     <i type="int" name="INIMIX">     1</i>
     <i type="int" name="MIXPRE">     1</i>
     <i type="int" name="MREMOVE">     5</i>
    </separator>
   </separator>
   <separator name="electronic dipolcorrection" >
    <i type="logical" name="LDIPOL"> F  </i>
    <i type="logical" name="LMONO"> F  </i>
    <i type="int" name="IDIPOL">     0</i>
    <i name="EPSILON">      1.00000000</i>
    <v name="DIPOL">   -100.00000000   -100.00000000   -100.00000000</v>
    <i name="EFIELD">      0.00000000</i>
   </separator>
  </separator>
  <separator name="grids" >
   <i type="int" name="NGX">    36</i>
   <i type="int" name="NGY">    36</i>
   <i type="int" name="NGZ">    96</i>
   <i type="int" name="NGXF">    72</i>
   <i type="int" name="NGYF">    72</i>
   <i type="int" name="NGZF">   192</i>
   <i type="logical" name="ADDGRID"> T  </i>
  </separator>
  <separator name="ionic" >
   <i type="int" name="NSW">   133</i>
   <i type="int" name="IBRION">     6</i>
   <i type="int" name="MDALGO">     0</i>
   <i type="int" name="ISIF">     3</i>
   <i name="PSTRESS">      0.00000000</i>
   <i name="EDIFFG">     -0.00100000</i>
   <i type="int" name="NFREE">     4</i>
   <i name="POTIM">      0.50000000</i>
   <i name="SMASS">     -3.00000000</i>
   <i name="SCALEE">      1.00000000</i>
  </separator>
  <separator name="ionic md" >
   <i name="TEBEG">      0.00010000</i>
   <i name="TEEND">      0.00010000</i>
   <i type="int" name="NBLOCK">     1</i>
   <i type="int" name="KBLOCK">   133</i>
   <i type="int" name="NPACO">   256</i>
   <i name="APACO">     16.00000000</i>
  </separator>
  <separator name="symmetry" >
   <i type="int" name="ISYM">     2</i>
   <i name="SYMPREC">      0.00001000</i>
  </separator>
  <separator name="dos" >
   <i type="int" name="LORBIT">     0</i>
   <v name="RWIGS">     -1.00000000     -1.00000000</v>
   <i type="int" name="NEDOS">   301</i>
   <i name="EMIN">     10.00000000</i>
   <i name="EMAX">    -10.00000000</i>
   <i name="EFERMI">      0.00000000</i>
  </separator>
  <separator name="writing" >
   <i type="int" name="NWRITE">     2</i>
   <i type="logical" name="LWAVE"> F  </i>
   <i type="logical" name="LDOWNSAMPLE"> F  </i>
   <i type="logical" name="LCHARG"> F  </i>
   <i type="logical" name="LPARD"> F  </i>
   <i type="logical" name="LVTOT"> F  </i>
   <i type="logical" name="LVHAR"> F  </i>
   <i type="logical" name="LELF"> F  </i>
   <i type="logical" name="LOPTICS"> F  </i>
   <v name="STM">      0.00000000      0.00000000      0.00000000      0.00000000      0.00000000      0.00000000      0.00000000</v>
  </separator>
  <separator name="performance" >
   <i type="int" name="NPAR">     8</i>
   <i type="int" name="NSIM">     4</i>
   <i type="int" name="NBLK">    -1</i>
   <i type="logical" name="LPLANE"> T  </i>
   <i type="logical" name="LSCALAPACK"> T  </i>
   <i type="logical" name="LSCAAWARE"> F  </i>
   <i type="logical" name="LSCALU"> F  </i>
   <i type="logical" name="LASYNC"> F  </i>
   <i type="logical" name="LORBITALREAL"> F  </i>
  </separator>
  <separator name="miscellaneous" >
   <i type="int" name="IDIOT">     3</i>
   <i type="int" name="ISPECIAL">     0</i>
   <i type="logical" name="LMUSIC"> F  </i>
   <v name="POMASS">    118.71000000     78.96000000</v>
   <v name="DARWINR">      0.00000000      0.00000000</v>
   <v name="DARWINV">      1.00000000      1.00000000</v>
   <i type="logical" name="LCORR"> T  </i>
  </separator>
  <i type="logical" name="GGA_COMPAT"> T  </i>
  <i type="logical" name="LBERRY"> F  </i>
  <i type="int" name="ICORELEVEL">     0</i>
  <i type="logical" name="LDAU"> F  </i>
  <i type="int" name="I_CONSTRAINED_M">     0</i>
  <separator name="electronic exchange-correlation" >
   <i type="string" name="GGA">--</i>
   <i type="int" name="VOSKOWN">     0</i>
   <i type="logical" name="LHFCALC"> F  </i>
   <i type="string" name="PRECFOCK"></i>
   <i type="logical" name="LSYMGRAD"> F  </i>
   <i type="logical" name="LHFONE"> F  </i>
   <i type="logical" name="LRHFCALC"> F  </i>
   <i type="logical" name="LTHOMAS"> F  </i>
   <i type="logical" name="LMODELHF"> F  </i>
   <i name="ENCUT4O">     -1.00000000</i>
   <i type="int" name="EXXOEP">     0</i>
   <i type="int" name="FOURORBIT">     0</i>
   <i name="AEXX">      0.00000000</i>
   <i name="HFALPHA">      0.00000000</i>
   <i name="MCALPHA">      0.00000000</i>
   <i name="ALDAX">      1.00000000</i>
   <i name="AGGAX">      1.00000000</i>
   <i name="ALDAC">      1.00000000</i>
   <i name="AGGAC">      1.00000000</i>
   <i type="int" name="NKREDX">     1</i>
   <i type="int" name="NKREDY">     1</i>
   <i type="int" name="NKREDZ">     1</i>
   <i type="logical" name="SHIFTRED"> F  </i>
   <i type="logical" name="ODDONLY"> F  </i>
   <i type="logical" name="EVENONLY"> F  </i>
   <i type="int" name="LMAXFOCK">     0</i>
   <i type="int" name="NMAXFOCKAE">     0</i>
   <i type="logical" name="LFOCKAEDFT"> F  </i>
   <i name="HFSCREEN">      0.00000000</i>
   <i name="HFSCREENC">      0.00000000</i>
   <i type="int" name="NBANDSGWLOW">     0</i>
  </separator>
  <separator name="vdW DFT" >
   <i type="logical" name="LUSE_VDW"> F  </i>
   <i name="Zab_VDW">     -0.84910000</i>
   <i name="PARAM1">      0.12340000</i>
   <i name="PARAM2">      1.00000000</i>
   <i name="PARAM3">      0.00000000</i>
  </separator>
  <separator name="model GW" >
   <i type="int" name="MODEL_GW">     0</i>
   <i name="MODEL_EPS0">     16.41853454</i>
   <i name="MODEL_ALPHA">      1.00000000</i>
  </separator>
  <separator name="linear response parameters" >
   <i type="logical" name="LEPSILON"> F  </i>
   <i type="logical" name="LRPA"> F  </i>
   <i type="logical" name="LNABLA"> F  </i>
   <i type="logical" name="LVEL"> F  </i>
   <i type="int" name="KINTER">     0</i>
   <i name="CSHIFT">      0.10000000</i>
   <i name="OMEGAMAX">     -1.00000000</i>
   <i name="DEG_THRESHOLD">      0.00200000</i>
   <i name="RTIME">     -0.10000000</i>
   <i name="WPLASMAI">      0.00000000</i>
   <v name="DFIELD">      0.00000000      0.00000000      0.00000000</v>
   <v name="WPLASMA">      0.00000000      0.00000000      0.00000000      0.00000000      0.00000000      0.00000000      0.00000000      0.00000000      0.00000000</v>
  </separator>
  <separator name="orbital magnetization" >
   <i type="logical" name="NUCIND"> F  </i>
   <v name="MAGPOS">      0.00000000      0.00000000      0.00000000</v>
   <i type="logical" name="LNICSALL"> T  </i>
   <i type="logical" name="ORBITALMAG"> F  </i>
   <i type="logical" name="LMAGBLOCH"> F  </i>
   <i type="logical" name="LCHIMAG"> F  </i>
   <i type="logical" name="LGAUGE"> T  </i>
   <i type="int" name="MAGATOM">     0</i>
   <v name="MAGDIPOL">      0.00000000      0.00000000      0.00000000</v>
   <v name="AVECCONST">      0.00000000      0.00000000      0.00000000</v>
  </separator>
  <separator name="response functions" >
   <i type="logical" name="LADDER"> F  </i>
   <i type="logical" name="LRPAFORCE"> F  </i>
   <i type="logical" name="LFXC"> F  </i>
   <i type="logical" name="LHARTREE"> T  </i>
   <i type="int" name="IBSE">     0</i>
   <v type="int" name="KPOINT">    -1     0     0     0</v>
   <i type="logical" name="LTCTE"> F  </i>
   <i type="logical" name="LTETE"> F  </i>
   <i type="logical" name="LTRIPLET"> F  </i>
   <i type="logical" name="LFXCEPS"> F  </i>
   <i type="logical" name="LFXHEG"> F  </i>
   <i type="int" name="NATURALO">     2</i>
   <i type="logical" name="L2ORDER"> F  </i>
   <i type="logical" name="LMP2LT"> F  </i>
   <i type="logical" name="LUSEW"> F  </i>
   <i name="ENCUTGW">     -2.00000000</i>
   <i name="ENCUTGWSOFT">     -2.00000000</i>
   <i name="ENCUTLF">     -1.00000000</i>
   <i type="int" name="LMAXMP2">    -1</i>
   <i name="SCISSOR">      0.00000000</i>
   <i type="int" name="NOMEGA">     0</i>
   <i type="int" name="NOMEGAR">     0</i>
   <i type="int" name="NBANDSGW">    -1</i>
   <i type="int" name="NBANDSO">    -1</i>
   <i type="int" name="NBANDSV">    -1</i>
   <i type="int" name="NELM">     1</i>
   <i type="int" name="NELMHF">     1</i>
   <i type="int" name="DIM">     3</i>
   <i type="int" name="ANTIRES">     0</i>
   <i name="OMEGAMAX">    -30.00000000</i>
   <i name="OMEGAMIN">    -30.00000000</i>
   <i name="OMEGATL">   -200.00000000</i>
   <i type="int" name="OMEGAGRID">   140</i>
   <i name="CSHIFT">     -0.10000000</i>
   <i type="logical" name="SELFENERGY"> F  </i>
   <i type="logical" name="LSPECTRAL"> F  </i>
   <i type="logical" name="LSPECTRALGW"> F  </i>
   <i type="logical" name="LSINGLES"> F  </i>
   <i type="logical" name="LFERMIGW"> F  </i>
   <i type="logical" name="ODDONLYGW"> F  </i>
   <i type="logical" name="EVENONLYGW"> F  </i>
   <i type="int" name="NKREDLFX">     1</i>
   <i type="int" name="NKREDLFY">     1</i>
   <i type="int" name="NKREDLFZ">     1</i>
   <i type="int" name="MAXMEM">  2800</i>
   <i type="int" name="TELESCOPE">     0</i>
   <i type="int" name="TAUPAR">     1</i>
   <i type="int" name="OMEGAPAR">    -1</i>
   <i name="LAMBDA">      1.00000000</i>
  </separator>
  <separator name="External order field" >
   <i name="OFIELD_KAPPA">      0.00000000</i>
   <v name="OFIELD_K">      0.00000000      0.00000000      0.00000000</v>
   <i name="OFIELD_Q6_NEAR">      0.00000000</i>
   <i name="OFIELD_Q6_FAR">      0.00000000</i>
   <i name="OFIELD_A">      0.00000000</i>
  </separator>
 </parameters>
 <atominfo>
  <atoms>       8 </atoms>
  <types>       2 </types>
  <array name="atoms" >
   <dimension dim="1">ion</dimension>
   <field type="string">element</field>
   <field type="int">atomtype</field>
   <set>
    <rc><c>Sn</c><c>   1</c></rc>
    <rc><c>Sn</c><c>   1</c></rc>
    <rc><c>Sn</c><c>   1</c></rc>
    <rc><c>Sn</c><c>   1</c></rc>
    <rc><c>Se</c><c>   2</c></rc>
    <rc><c>Se</c><c>   2</c></rc>
    <rc><c>Se</c><c>   2</c></rc>
    <rc><c>Se</c><c>   2</c></rc>
   </set>
  </array>
  <array name="atomtypes" >
   <dimension dim="1">type</dimension>
   <field type="int">atomspertype</field>
   <field type="string">element</field>
   <field>mass</field>
   <field>valence</field>
   <field type="string">pseudopotential</field>
   <set>
    <rc><c>   4</c><c>Sn</c><c>    118.71000000</c><c>     14.00000000</c><c>  PAW_PBE Sn_d 06Sep2000                </c></rc>
    <rc><c>   4</c><c>Se</c><c>     78.96000000</c><c>      6.00000000</c><c>  PAW_PBE Se 06Sep2000                  </c></rc>
   </set>
  </array>
 </atominfo>
 <structure name="initialpos" >
  <crystal>
   <varray name="basis" >
    <v>       4.16842225       0.00000000       0.00000000 </v>
    <v>       0.00000000       4.53967086       0.00000000 </v>
    <v>       0.00000000       0.00000000      11.56850013 </v>
   </varray>
   <i name="volume">    218.91379385 </i>
   <varray name="rec_basis" >
    <v>       0.23989892      -0.00000000       0.00000000 </v>
    <v>       0.00000000       0.22028029       0.00000000 </v>
    <v>      -0.00000000      -0.00000000       0.08644163 </v>
   </varray>
  </crystal>
  <varray name="positions" >
   <v>       0.25000000       0.11238621       0.11664596 </v>
   <v>       0.75000000       0.88761379       0.88335404 </v>
   <v>       0.75000000       0.61238621       0.38335404 </v>
   <v>       0.25000000       0.38761379       0.61664596 </v>
   <v>       0.75000000       0.51916418       0.14510650 </v>
   <v>       0.25000000       0.48083582       0.85489350 </v>
   <v>       0.25000000       0.01916418       0.35489350 </v>
   <v>       0.75000000       0.98083582       0.64510650 </v>
  </varray>
 </structure>
 <calculation>
  <scstep>
   <time name="dav">   15.07   15.13</time>
   <time name="total">   15.43   15.53</time>
   <energy>
    <i name="alphaZ">    201.88417816 </i>
    <i name="ewald">  -5919.77645388 </i>
    <i name="hartreedc">  -2411.66136747 </i>
    <i name="XCdc">    224.34354228 </i>
    <i name="pawpsdc">   7116.73000302 </i>
    <i name="pawaedc">  -7210.55896847 </i>
    <i name="eentropy">      0.00000000 </i>
    <i name="bandstr">    317.38719309 </i>
    <i name="atom">   8600.94477988 </i>
    <i name="e_fr_energy">    919.29290660 </i>
    <i name="e_wo_entrp">    919.29290660 </i>
    <i name="e_0_energy">    919.29290660 </i>
   </energy>
  </scstep>
  <scstep>
   <time name="dav">   14.27   14.34</time>
   <time name="total">   14.35   14.42</time>
   <energy>
    <i name="e_fr_energy">    126.25731173 </i>
    <i name="e_wo_entrp">    126.25731173 </i>
    <i name="e_0_energy">    126.25731173 </i>
   </energy>
  </scstep>
  <scstep>
   <time name="dav">   16.18   16.24</time>
   <time name="total">   16.20   16.26</time>
   <energy>
    <i name="e_fr_energy">    -23.06099739 </i>
    <i name="e_wo_entrp">    -23.06099739 </i>
    <i name="e_0_energy">    -23.06099739 </i>
   </energy>
  </scstep>
  <scstep>
   <time name="dav">   16.06   16.13</time>
   <time name="total">   16.08   16.15</time>
   <energy>
    <i name="e_fr_energy">    -33.29099262 </i>
    <i name="e_wo_entrp">    -33.29099262 </i>
    <i name="e_0_energy">    -33.29099262 </i>
   </energy>
  </scstep>
  <scstep>
   <time name="dav">   15.81   15.87</time>
   <time name="total">   16.87   16.93</time>
   <energy>
    <i name="e_fr_energy">    -33.62364566 </i>
    <i name="e_wo_entrp">    -33.62364566 </i>
    <i name="e_0_energy">    -33.62364566 </i>
   </energy>
  </scstep>
  <scstep>
   <time name="dav">   18.03   18.09</time>
   <time name="total">   19.35   19.40</time>
   <energy>
    <i name="e_fr_energy">    -32.86726126 </i>
[...]
      </set>
      <set comment="kpoint 74">
       <r>  -16.1787    1.0000 </r>
       <r>  -16.1667    1.0000 </r>
       <r>  -16.1577    1.0000 </r>
       <r>  -16.1547    1.0000 </r>
       <r>  -16.1495    1.0000 </r>
       <r>  -16.1482    1.0000 </r>
       <r>  -16.1414    1.0000 </r>
       <r>  -16.1350    1.0000 </r>
       <r>  -16.1293    1.0000 </r>
       <r>  -16.1256    1.0000 </r>
       <r>  -16.1237    1.0000 </r>
       <r>  -16.1186    1.0000 </r>
       <r>  -16.1152    1.0000 </r>
       <r>  -16.1090    1.0000 </r>
       <r>  -16.0994    1.0000 </r>
       <r>  -16.0962    1.0000 </r>
       <r>  -16.0920    1.0000 </r>
       <r>  -16.0861    1.0000 </r>
       <r>  -16.0764    1.0000 </r>
       <r>  -16.0691    1.0000 </r>
       <r>   -7.3429    1.0000 </r>
       <r>   -7.3269    1.0000 </r>
       <r>   -7.2172    1.0000 </r>
       <r>   -7.1932    1.0000 </r>
       <r>   -1.9051    1.0000 </r>
       <r>   -1.8963    1.0000 </r>
       <r>   -1.2865    1.0000 </r>
       <r>   -1.2753    1.0000 </r>
       <r>    0.7988    1.0000 </r>
       <r>    0.8008    1.0000 </r>
       <r>    0.8410    1.0000 </r>
       <r>    0.8452    1.0000 </r>
       <r>    1.8841    1.0000 </r>
       <r>    1.8943    1.0000 </r>
       <r>    2.1146    1.0000 </r>
       <r>    2.1384    1.0000 </r>
       <r>    3.5377    1.0000 </r>
       <r>    3.5457    1.0000 </r>
       <r>    3.8005    1.0000 </r>
       <r>    3.8141    1.0000 </r>
       <r>    7.3978    0.0000 </r>
       <r>    7.4457    0.0000 </r>
       <r>    8.0549    0.0000 </r>
       <r>    8.0731    0.0000 </r>
       <r>    9.4203    0.0000 </r>
       <r>    9.4589    0.0000 </r>
       <r>    9.5283    0.0000 </r>
       <r>    9.5461    0.0000 </r>
      </set>
      <set comment="kpoint 75">
       <r>  -16.1806    1.0000 </r>
       <r>  -16.1692    1.0000 </r>
       <r>  -16.1565    1.0000 </r>
       <r>  -16.1563    1.0000 </r>
       <r>  -16.1511    1.0000 </r>
       <r>  -16.1480    1.0000 </r>
       <r>  -16.1399    1.0000 </r>
       <r>  -16.1368    1.0000 </r>
       <r>  -16.1275    1.0000 </r>
       <r>  -16.1235    1.0000 </r>
       <r>  -16.1232    1.0000 </r>
       <r>  -16.1185    1.0000 </r>
       <r>  -16.1147    1.0000 </r>
       <r>  -16.1100    1.0000 </r>
       <r>  -16.0988    1.0000 </r>
       <r>  -16.0934    1.0000 </r>
       <r>  -16.0928    1.0000 </r>
       <r>  -16.0878    1.0000 </r>
       <r>  -16.0731    1.0000 </r>
       <r>  -16.0708    1.0000 </r>
       <r>   -7.2214    1.0000 </r>
       <r>   -7.2182    1.0000 </r>
       <r>   -7.2100    1.0000 </r>
       <r>   -7.1891    1.0000 </r>
       <r>   -1.5336    1.0000 </r>
       <r>   -1.5301    1.0000 </r>
       <r>   -1.5285    1.0000 </r>
       <r>   -1.5256    1.0000 </r>
       <r>    0.7588    1.0000 </r>
       <r>    0.7633    1.0000 </r>
       <r>    0.7728    1.0000 </r>
       <r>    0.7795    1.0000 </r>
       <r>    1.5536    1.0000 </r>
       <r>    1.5645    1.0000 </r>
       <r>    1.5732    1.0000 </r>
       <r>    1.5817    1.0000 </r>
       <r>    3.7059    1.0000 </r>
       <r>    3.7084    1.0000 </r>
       <r>    3.7140    1.0000 </r>
       <r>    3.7149    1.0000 </r>
       <r>    7.5443    0.0000 </r>
       <r>    7.5906    0.0000 </r>
       <r>    7.6029    0.0000 </r>
       <r>    7.6207    0.0000 </r>
       <r>    9.7625    0.0000 </r>
       <r>    9.7706    0.0000 </r>
       <r>    9.7790    0.0000 </r>
       <r>    9.8235    0.0000 </r>
      </set>
     </set>
    </set>
   </array>
  </eigenvalues>
  <separator name="orbital magnetization" >
   <v name="MAGDIPOLOUT">      0.00000000      0.00000000      0.00000000</v>
  </separator>
  <dos>
   <i name="efermi">      5.12016588 </i>
   <total>
    <array>
     <dimension dim="1">gridpoints</dimension>
     <dimension dim="2">spin</dimension>
     <field>energy</field>
     <field>total</field>
     <field>integrated</field>
     <set>
      <set comment="spin 1">
       <r>   -18.1808     0.0000     0.0000 </r>
       <r>   -18.0805     0.0000     0.0000 </r>
       <r>   -17.9802     0.0000     0.0000 </r>
       <r>   -17.8798     0.0000     0.0000 </r>
       <r>   -17.7795     0.0000     0.0000 </r>
       <r>   -17.6792     0.0000     0.0000 </r>
       <r>   -17.5789     0.0000     0.0000 </r>
       <r>   -17.4785     0.0000     0.0000 </r>
       <r>   -17.3782     0.0000     0.0000 </r>
       <r>   -17.2779     0.0000     0.0000 </r>
       <r>   -17.1776     0.0000     0.0000 </r>
       <r>   -17.0772     0.0000     0.0000 </r>
       <r>   -16.9769     0.0000     0.0000 </r>
       <r>   -16.8766     0.0000     0.0000 </r>
       <r>   -16.7762     0.0000     0.0000 </r>
       <r>   -16.6759     0.0000     0.0000 </r>
       <r>   -16.5756     0.0000     0.0000 </r>
       <r>   -16.4753     0.0000     0.0000 </r>
       <r>   -16.3749     0.0000     0.0000 </r>
       <r>   -16.2746     0.0000     0.0000 </r>
       <r>   -16.1743   134.9769     0.4984 </r>
       <r>   -16.0740   164.4404    37.8366 </r>
       <r>   -15.9736     0.0000    40.0000 </r>
       <r>   -15.8733     0.0000    40.0000 </r>
       <r>   -15.7730     0.0000    40.0000 </r>
       <r>   -15.6726     0.0000    40.0000 </r>
       <r>   -15.5723     0.0000    40.0000 </r>
       <r>   -15.4720     0.0000    40.0000 </r>
       <r>   -15.3717     0.0000    40.0000 </r>
       <r>   -15.2713     0.0000    40.0000 </r>
       <r>   -15.1710     0.0000    40.0000 </r>
       <r>   -15.0707     0.0000    40.0000 </r>
       <r>   -14.9704     0.0000    40.0000 </r>
       <r>   -14.8700     0.0000    40.0000 </r>
       <r>   -14.7697     0.0000    40.0000 </r>
       <r>   -14.6694     0.0000    40.0000 </r>
       <r>   -14.5690     0.0000    40.0000 </r>
       <r>   -14.4687     0.0000    40.0000 </r>
       <r>   -14.3684     0.0000    40.0000 </r>
       <r>   -14.2681     0.0000    40.0000 </r>
       <r>   -14.1677     0.0000    40.0000 </r>
       <r>   -14.0674     0.0000    40.0000 </r>
       <r>   -13.9671     0.0000    40.0000 </r>
       <r>   -13.8668     0.0000    40.0000 </r>
       <r>   -13.7664     0.0000    40.0000 </r>
       <r>   -13.6661     0.0000    40.0000 </r>
       <r>   -13.5658     0.0000    40.0000 </r>
       <r>   -13.4654     0.0000    40.0000 </r>
       <r>   -13.3651     0.0000    40.0000 </r>
       <r>   -13.2648     0.0000    40.0000 </r>
       <r>   -13.1645     0.0000    40.0000 </r>
       <r>   -13.0641     0.0000    40.0000 </r>
       <r>   -12.9638     0.0000    40.0000 </r>
       <r>   -12.8635     0.0000    40.0000 </r>
       <r>   -12.7632     0.0000    40.0000 </r>
       <r>   -12.6628     0.0000    40.0000 </r>
       <r>   -12.5625     0.0000    40.0000 </r>
       <r>   -12.4622     0.0000    40.0000 </r>
       <r>   -12.3618     0.0000    40.0000 </r>
       <r>   -12.2615     0.0000    40.0000 </r>
       <r>   -12.1612     0.0000    40.0000 </r>
       <r>   -12.0609     0.0000    40.0000 </r>
       <r>   -11.9605     0.0000    40.0000 </r>
       <r>   -11.8602     0.0000    40.0000 </r>
       <r>   -11.7599     0.0000    40.0000 </r>
       <r>   -11.6596     0.0000    40.0000 </r>
       <r>   -11.5592     0.0000    40.0000 </r>
       <r>   -11.4589     0.0000    40.0000 </r>
       <r>   -11.3586     0.0000    40.0000 </r>
       <r>   -11.2583     0.0000    40.0000 </r>
       <r>   -11.1579     0.0000    40.0000 </r>
       <r>   -11.0576     0.0000    40.0000 </r>
       <r>   -10.9573     0.0000    40.0000 </r>
       <r>   -10.8569     0.0000    40.0000 </r>
       <r>   -10.7566     0.0000    40.0000 </r>
       <r>   -10.6563     0.0000    40.0000 </r>
       <r>   -10.5560     0.0000    40.0000 </r>
       <r>   -10.4556     0.0000    40.0000 </r>
       <r>   -10.3553     0.0000    40.0000 </r>
       <r>   -10.2550     0.0000    40.0000 </r>
       <r>   -10.1547     0.0000    40.0000 </r>
       <r>   -10.0543     0.0000    40.0000 </r>
       <r>    -9.9540     0.0000    40.0000 </r>
       <r>    -9.8537     0.0000    40.0000 </r>
       <r>    -9.7533     0.0000    40.0000 </r>
       <r>    -9.6530     0.0000    40.0000 </r>
       <r>    -9.5527     0.0000    40.0000 </r>
       <r>    -9.4524     0.0000    40.0000 </r>
       <r>    -9.3520     0.0000    40.0000 </r>
       <r>    -9.2517     0.0000    40.0000 </r>
       <r>    -9.1514     0.0000    40.0000 </r>
       <r>    -9.0511     0.0000    40.0000 </r>
       <r>    -8.9507     0.0000    40.0000 </r>
       <r>    -8.8504     0.0000    40.0000 </r>
       <r>    -8.7501     0.0000    40.0000 </r>
       <r>    -8.6497     0.0000    40.0000 </r>
       <r>    -8.5494     0.0000    40.0000 </r>
       <r>    -8.4491     0.0000    40.0000 </r>
       <r>    -8.3488     1.1436    40.0474 </r>
       <r>    -8.2484     1.6719    40.1905 </r>
       <r>    -8.1481     2.5462    40.3999 </r>
       <r>    -8.0478     3.3914    40.7090 </r>
       <r>    -7.9475     3.6419    41.0570 </r>
       <r>    -7.8471     4.0842    41.4433 </r>
       <r>    -7.7468     5.0339    41.8914 </r>
       <r>    -7.6465     4.5546    42.4145 </r>
       <r>    -7.5461     4.4589    42.8598 </r>
       <r>    -7.4458     8.8457    43.4428 </r>
       <r>    -7.3455    12.3563    44.4467 </r>
       <r>    -7.2452    16.0570    45.9756 </r>
       <r>    -7.1448     9.7540    47.3824 </r>
       <r>    -7.0445     2.3204    47.9856 </r>
       <r>    -6.9442     0.0000    48.0000 </r>
       <r>    -6.8439     0.0000    48.0000 </r>
       <r>    -6.7435     0.0000    48.0000 </r>
       <r>    -6.6432     0.0000    48.0000 </r>
       <r>    -6.5429     0.0000    48.0000 </r>
       <r>    -6.4425     0.0000    48.0000 </r>
       <r>    -6.3422     0.0000    48.0000 </r>
       <r>    -6.2419     0.0000    48.0000 </r>
       <r>    -6.1416     0.0000    48.0000 </r>
       <r>    -6.0412     0.0000    48.0000 </r>
       <r>    -5.9409     0.0000    48.0000 </r>
       <r>    -5.8406     0.0000    48.0000 </r>
       <r>    -5.7403     0.0000    48.0000 </r>
       <r>    -5.6399     0.0000    48.0000 </r>
       <r>    -5.5396     0.0000    48.0000 </r>
       <r>    -5.4393     0.0000    48.0000 </r>
       <r>    -5.3389     0.0000    48.0000 </r>
       <r>    -5.2386     0.0000    48.0000 </r>
       <r>    -5.1383     0.0000    48.0000 </r>
       <r>    -5.0380     0.0000    48.0000 </r>
       <r>    -4.9376     0.0000    48.0000 </r>
       <r>    -4.8373     0.0000    48.0000 </r>
       <r>    -4.7370     0.0000    48.0000 </r>
       <r>    -4.6367     0.0000    48.0000 </r>
       <r>    -4.5363     0.0000    48.0000 </r>
       <r>    -4.4360     0.0000    48.0000 </r>
       <r>    -4.3357     0.0000    48.0000 </r>
       <r>    -4.2353     0.0000    48.0000 </r>
       <r>    -4.1350     0.0000    48.0000 </r>
       <r>    -4.0347     0.0000    48.0000 </r>
       <r>    -3.9344     0.0000    48.0000 </r>
       <r>    -3.8340     0.0000    48.0000 </r>
       <r>    -3.7337     0.0000    48.0000 </r>
       <r>    -3.6334     0.0000    48.0000 </r>
       <r>    -3.5331     0.0000    48.0000 </r>
       <r>    -3.4327     0.0000    48.0000 </r>
       <r>    -3.3324     0.0000    48.0000 </r>
       <r>    -3.2321     0.0000    48.0000 </r>
       <r>    -3.1317     0.0000    48.0000 </r>
       <r>    -3.0314     0.0000    48.0000 </r>
       <r>    -2.9311     0.0000    48.0000 </r>
       <r>    -2.8308     0.0000    48.0000 </r>
       <r>    -2.7304     0.4807    48.0130 </r>
       <r>    -2.6301     1.4866    48.1189 </r>
       <r>    -2.5298     1.8936    48.2932 </r>
       <r>    -2.4295     2.9407    48.5132 </r>
       <r>    -2.3291     4.5840    48.9068 </r>
       <r>    -2.2288     4.6461    49.3717 </r>
       <r>    -2.1285     4.7482    49.8481 </r>
       <r>    -2.0281     4.4666    50.3084 </r>
       <r>    -1.9278     4.3899    50.7508 </r>
       <r>    -1.8275     5.2379    51.2189 </r>
       <r>    -1.7272     4.4325    51.7464 </r>
       <r>    -1.6268     3.5888    52.1382 </r>
       <r>    -1.5265     3.5278    52.4850 </r>
       <r>    -1.4262     5.8971    52.9301 </r>
       <r>    -1.3259     7.5622    53.5924 </r>
       <r>    -1.2255     4.4642    54.2629 </r>
       <r>    -1.1252     3.0209    54.6319 </r>
       <r>    -1.0249     2.2066    54.8923 </r>
       <r>    -0.9245     1.7550    55.0860 </r>
       <r>    -0.8242     1.4828    55.2474 </r>
       <r>    -0.7239     1.3008    55.3865 </r>
       <r>    -0.6236     1.1740    55.5100 </r>
       <r>    -0.5232     1.0822    55.6234 </r>
       <r>    -0.4229     0.9384    55.7256 </r>
       <r>    -0.3226     0.8146    55.8122 </r>
       <r>    -0.2223     0.7002    55.8905 </r>
       <r>    -0.1219     0.4429    55.9473 </r>
       <r>    -0.0216     0.2425    55.9813 </r>
       <r>     0.0787     0.0816    55.9973 </r>
       <r>     0.1791     0.0000    56.0000 </r>
       <r>     0.2794     0.0000    56.0000 </r>
       <r>     0.3797     0.0037    56.0000 </r>
       <r>     0.4800     0.4790    56.0177 </r>
       <r>     0.5804     1.5566    56.1272 </r>
       <r>     0.6807     2.1218    56.3083 </r>
       <r>     0.7810     2.5790    56.5486 </r>
       <r>     0.8813     3.3083    56.8374 </r>
       <r>     0.9817     3.7326    57.1920 </r>
       <r>     1.0820     4.8235    57.6185 </r>
       <r>     1.1823     4.3430    58.0931 </r>
       <r>     1.2827     4.1916    58.5142 </r>
       <r>     1.3830     4.4601    58.9471 </r>
       <r>     1.4833     4.5660    59.4008 </r>
       <r>     1.5836     4.9530    59.8749 </r>
       <r>     1.6840     5.7238    60.4129 </r>
       <r>     1.7843     6.0382    60.9947 </r>
       <r>     1.8846     6.1495    61.6112 </r>
       <r>     1.9849     6.1306    62.2284 </r>
       <r>     2.0853     5.8002    62.8319 </r>
       <r>     2.1856     5.5231    63.3950 </r>
       <r>     2.2859     5.8311    63.9568 </r>
       <r>     2.3862     5.8105    64.5421 </r>
       <r>     2.4866     5.8931    65.1271 </r>
       <r>     2.5869     6.3745    65.7402 </r>
       <r>     2.6872     7.8230    66.4313 </r>
       <r>     2.7876     6.8809    67.1723 </r>
       <r>     2.8879     5.9394    67.8092 </r>
       <r>     2.9882     5.8464    68.3999 </r>
       <r>     3.0885     5.7414    68.9831 </r>
       <r>     3.1889     6.2925    69.5832 </r>
       <r>     3.2892     7.7756    70.2750 </r>
       <r>     3.3895     7.9158    71.0892 </r>
       <r>     3.4898     8.0704    71.8915 </r>
       <r>     3.5902     6.5754    72.6377 </r>
       <r>     3.6905     5.2568    73.2306 </r>
       <r>     3.7908     5.3798    73.7590 </r>
       <r>     3.8912     6.0608    74.3198 </r>
       <r>     3.9915     6.0420    74.9455 </r>
       <r>     4.0918     5.7064    75.5330 </r>
       <r>     4.1921     6.0360    76.1181 </r>
       <r>     4.2925     6.3608    76.7543 </r>
       <r>     4.3928     5.6700    77.3359 </r>
       <r>     4.4931     7.4714    78.0005 </r>
       <r>     4.5934     5.5405    78.6978 </r>
       <r>     4.6938     8.3599    79.3320 </r>
       <r>     4.7941     2.1000    79.7506 </r>
       <r>     4.8944     1.1198    79.9044 </r>
       <r>     4.9948     0.4325    79.9790 </r>
       <r>     5.0951     0.0214    79.9999 </r>
       <r>     5.1954     0.0000    80.0000 </r>
       <r>     5.2957     0.0000    80.0000 </r>
       <r>     5.3961     0.0000    80.0000 </r>
       <r>     5.4964     0.0000    80.0000 </r>
       <r>     5.5967     0.0000    80.0000 </r>
       <r>     5.6970     0.0000    80.0000 </r>
       <r>     5.7974     0.0000    80.0000 </r>
       <r>     5.8977     0.0452    80.0014 </r>
       <r>     5.9980     0.2826    80.0152 </r>
       <r>     6.0984     0.7987    80.0664 </r>
       <r>     6.1987     1.7565    80.1917 </r>
       <r>     6.2990     2.6304    80.4126 </r>
       <r>     6.3993     3.2794    80.7139 </r>
       <r>     6.4997     3.6818    81.0678 </r>
       <r>     6.6000     3.8819    81.4467 </r>
       <r>     6.7003     4.2105    81.8533 </r>
       <r>     6.8006     4.9359    82.3062 </r>
       <r>     6.9010     4.9797    82.8098 </r>
       <r>     7.0013     5.2833    83.3274 </r>
       <r>     7.1016     5.1505    83.8539 </r>
       <r>     7.2020     5.0858    84.3640 </r>
       <r>     7.3023     5.4746    84.8912 </r>
       <r>     7.4026     5.7026    85.4549 </r>
       <r>     7.5029     5.4152    86.0169 </r>
       <r>     7.6033     4.7353    86.5272 </r>
       <r>     7.7036     4.3435    86.9749 </r>
       <r>     7.8039     4.7440    87.4262 </r>
       <r>     7.9042     6.1783    87.9611 </r>
       <r>     8.0046     6.8669    88.6303 </r>
       <r>     8.1049     7.5670    89.3578 </r>
       <r>     8.2052     7.9340    90.1318 </r>
       <r>     8.3056     7.1987    90.9142 </r>
       <r>     8.4059     5.8125    91.5677 </r>
       <r>     8.5062     4.4245    92.0661 </r>
       <r>     8.6065     4.1404    92.4890 </r>
       <r>     8.7069     4.7828    92.9343 </r>
       <r>     8.8072     4.5481    93.4118 </r>
       <r>     8.9075     3.7137    93.8180 </r>
       <r>     9.0078     3.5040    94.1793 </r>
       <r>     9.1082     3.1242    94.5142 </r>
       <r>     9.2085     3.0979    94.8291 </r>
       <r>     9.3088     2.1257    95.0684 </r>
       <r>     9.4092     1.9819    95.2726 </r>
       <r>     9.5095     1.9760    95.4705 </r>
       <r>     9.6098     1.9400    95.6695 </r>
       <r>     9.7101     1.4179    95.8426 </r>
       <r>     9.8105     0.8173    95.9537 </r>
       <r>     9.9108     0.0482    95.9999 </r>
       <r>    10.0111     0.0000    96.0000 </r>
       <r>    10.1114     0.0000    96.0000 </r>
       <r>    10.2118     0.0000    96.0000 </r>
       <r>    10.3121     0.0000    96.0000 </r>
       <r>    10.4124     0.0000    96.0000 </r>
       <r>    10.5128     0.0000    96.0000 </r>
       <r>    10.6131     0.0000    96.0000 </r>
       <r>    10.7134     0.0000    96.0000 </r>
       <r>    10.8137     0.0000    96.0000 </r>
       <r>    10.9141     0.0000    96.0000 </r>
       <r>    11.0144     0.0000    96.0000 </r>
       <r>    11.1147     0.0000    96.0000 </r>
       <r>    11.2150     0.0000    96.0000 </r>
       <r>    11.3154     0.0000    96.0000 </r>
       <r>    11.4157     0.0000    96.0000 </r>
       <r>    11.5160     0.0000    96.0000 </r>
       <r>    11.6164     0.0000    96.0000 </r>
       <r>    11.7167     0.0000    96.0000 </r>
       <r>    11.8170     0.0000    96.0000 </r>
       <r>    11.9173     0.0000    96.0000 </r>
      </set>
     </set>
    </array>
   </total>
  </dos>
 </calculation>
 <structure name="finalpos" >
  <crystal>
   <varray name="basis" >
    <v>       4.16842225       0.00000000       0.00000000 </v>
    <v>       0.00000000       4.53967086       0.00000000 </v>
    <v>       0.00000000       0.00000000      11.56850013 </v>
   </varray>
   <i name="volume">    218.91379385 </i>
   <varray name="rec_basis" >
    <v>       0.23989892      -0.00000000       0.00000000 </v>
    <v>       0.00000000       0.22028029       0.00000000 </v>
    <v>      -0.00000000      -0.00000000       0.08644163 </v>
   </varray>
  </crystal>
  <varray name="positions" >
   <v>       0.25000000       0.11238621       0.11664596 </v>
   <v>       0.75000000       0.88761379       0.88335404 </v>
   <v>       0.75000000       0.61238621       0.38335404 </v>
   <v>       0.25000000       0.38761379       0.61664596 </v>
   <v>       0.75000000       0.51916418       0.14251325 </v>
   <v>       0.25000000       0.48083582       0.85489350 </v>
   <v>       0.25000000       0.01916418       0.35489350 </v>
   <v>       0.75000000       0.98083582       0.64510650 </v>
  </varray>
 </structure>
</modeling>
