 vasp.5.4.4.18Apr17-6-g9f103f2a35 (build Mar 20 2018 18:07:30) complex           
 executed on             LinuxGNU date 2020.07.12  11:04:51
 running on    8 total cores
 distrk:  each k-point on    8 cores,    1 groups
 distr:  one band on NCORES_PER_BAND=   2 cores,    4 groups


--------------------------------------------------------------------------------------------------------


 INCAR:
 POTCAR:    PAW_PBE Bi 08Apr2002                  
 POTCAR:    PAW_PBE Te 08Apr2002                  
 POTCAR:    PAW_PBE Bi 08Apr2002                  
   VRHFIN =Bi:                                                                  
   LEXCH  = PE                                                                  
   EATOM  =   150.8133 eV,   11.0845 Ry                                         
                                                                                
   TITEL  = PAW_PBE Bi 08Apr2002                                                
   LULTRA =        F    use ultrasoft PP ?                                      
   IUNSCR =        1    unscreen: 0-lin 1-nonlin 2-no                           
   RPACOR =    2.200    partial core radius                                     
   POMASS =  208.980; ZVAL   =    5.000    mass and valenz                      
   RCORE  =    3.000    outmost cutoff radius                                   
   RWIGS  =    3.090; RWIGS  =    1.635    wigner-seitz radius (au A)           
   ENMAX  =  105.037; ENMIN  =   78.777 eV                                      
   ICORE  =        3    local potential                                         
   LCOR   =        T    correct aug charges                                     
   LPAW   =        T    paw PP                                                  
   EAUG   =  265.427                                                            
   DEXC   =    0.000                                                            
   RMAX   =    3.067    core radius for proj-oper                               
   RAUG   =    1.300    factor for augmentation sphere                          
   RDEP   =    3.012    radius for radial grids                                 
   RDEPT  =    2.604    core radius for aug-charge                              
                                                                                
   Atomic configuration                                                         
   17 entries                                                                   
     n  l   j            E        occ.                                          
     1  0  0.50    -90639.6582   2.0000                                         
     2  0  0.50    -16282.4667   2.0000                                         
     2  1  1.50    -13922.8287   6.0000                                         
     3  0  0.50     -3930.4763   2.0000                                         
     3  1  1.50     -3256.7013   6.0000                                         
     3  2  2.50     -2581.6169  10.0000                                         
     4  0  0.50      -902.2614   2.0000                                         
     4  1  1.50      -681.5915   6.0000                                         
     4  2  2.50      -429.8249  10.0000                                         
     4  3  3.50      -152.6004  14.0000                                         
     5  0  0.50      -157.7156   2.0000                                         
     5  1  1.50       -95.8054   6.0000                                         
     5  2  2.50       -27.0806  10.0000                                         
     6  0  0.50       -14.4732   2.0000                                         
     6  1  1.50        -4.5702   3.0000                                         
     6  2  2.50        -2.7212   0.0000                                         
     5  3  2.50        -2.7212   0.0000                                         
   Description                                                                  
     l       E           TYP  RCUT    TYP  RCUT                                 
     0    -14.4732299     23  3.000                                             
     0    -12.2452434     23  3.000                                             
     1     -4.5701666     23  3.000                                             
     1    -13.6058260     23  3.000                                             
     2     -2.7211652     23  3.000                                             
     3     -1.3605826      7  3.000                                             
  local pseudopotential read in
  partial core-charges read in
  partial kinetic energy density read in
  kinetic energy density of atom read in
  atomic valenz-charges read in
  non local Contribution for L=           0  read in
    real space projection operators read in
  non local Contribution for L=           0  read in
    real space projection operators read in
  non local Contribution for L=           1  read in
    real space projection operators read in
  non local Contribution for L=           1  read in
    real space projection operators read in
  non local Contribution for L=           2  read in
    real space projection operators read in
    PAW grid and wavefunctions read in

   number of l-projection  operators is LMAX  =           5
   number of lm-projection operators is LMMAX =          13

 POTCAR:    PAW_PBE Te 08Apr2002                  
   VRHFIN =Te: s2p4                                                             
   LEXCH  = PE                                                                  
   EATOM  =   223.2721 eV,   16.4100 Ry                                         
                                                                                
   TITEL  = PAW_PBE Te 08Apr2002                                                
   LULTRA =        F    use ultrasoft PP ?                                      
   IUNSCR =        1    unscreen: 0-lin 1-nonlin 2-no                           
   RPACOR =    2.200    partial core radius                                     
   POMASS =  127.600; ZVAL   =    6.000    mass and valenz                      
   RCORE  =    2.300    outmost cutoff radius                                   
   RWIGS  =    2.900; RWIGS  =    1.535    wigner-seitz radius (au A)           
   ENMAX  =  174.982; ENMIN  =  131.236 eV                                      
   ICORE  =        3    local potential                                         
   LCOR   =        T    correct aug charges                                     
   LPAW   =        T    paw PP                                                  
   EAUG   =  368.792                                                            
   DEXC   =    0.000                                                            
   RMAX   =    2.345    core radius for proj-oper                               
   RAUG   =    1.300    factor for augmentation sphere                          
   RDEP   =    2.397    radius for radial grids                                 
   RDEPT  =    2.174    core radius for aug-charge                              
                                                                                
   Atomic configuration                                                         
   13 entries                                                                   
     n  l   j            E        occ.                                          
     1  0  0.50    -31621.2075   2.0000                                         
     2  0  0.50     -4848.7941   2.0000                                         
     2  1  1.50     -4352.1960   6.0000                                         
     3  0  0.50      -964.9612   2.0000                                         
     3  1  1.50      -803.6179   6.0000                                         
     3  2  2.50      -559.8710  10.0000                                         
     4  0  0.50      -164.3522   2.0000                                         
     4  1  1.50      -114.3756   6.0000                                         
     4  2  2.50       -41.6483  10.0000                                         
     5  0  0.50       -15.1072   2.0000                                         
     5  1  0.50        -5.9526   4.0000                                         
     5  2  1.50        -5.4423   0.0000                                         
     4  3  2.50        -5.4423   0.0000                                         
   Description                                                                  
     l       E           TYP  RCUT    TYP  RCUT                                 
     0    -15.1072389     23  2.300                                             
     0    -16.4678215     23  2.300                                             
     1     -5.9526306     23  2.300                                             
     1     -2.4873968     23  2.300                                             
     2     -5.4423304     23  2.300                                             
     3     -1.3605826     23  2.300                                             
  local pseudopotential read in
  partial core-charges read in
  partial kinetic energy density read in
  atomic valenz-charges read in
  non local Contribution for L=           0  read in
    real space projection operators read in
  non local Contribution for L=           0  read in
    real space projection operators read in
  non local Contribution for L=           1  read in
    real space projection operators read in
  non local Contribution for L=           1  read in
    real space projection operators read in
  non local Contribution for L=           2  read in
    real space projection operators read in
    PAW grid and wavefunctions read in

   number of l-projection  operators is LMAX  =           5
   number of lm-projection operators is LMMAX =          13

 WARNING: PSMAXN for non-local potential too small
          PSMAXN should be >   12.549083372950625       NTYP=           1
  PAW_PBE Bi 08Apr2002                  :
 energy of atom  1       EATOM= -150.8133
 kinetic energy error for atom=    0.0000 (will be added to EATOM!!)
  PAW_PBE Te 08Apr2002                  :
 energy of atom  2       EATOM= -223.2721
 kinetic energy error for atom=    0.0004 (will be added to EATOM!!)


 POSCAR: Bi2 Te3                                 
  positions in direct lattice
  No initial velocities read in
 exchange correlation table for  LEXCH =        8
   RHO(1)=    0.500       N(1)  =     2000
   RHO(2)=  100.500       N(2)  =     4000



--------------------------------------------------------------------------------------------------------


 ion  position               nearest neighbor table
   1  0.400  0.400  0.400-   5 3.08   5 3.08   5 3.08   3 3.26   3 3.26   3 3.26
   2  0.600  0.600  0.600-   4 3.08   4 3.08   4 3.08   3 3.26   3 3.26   3 3.26
   3  0.000  0.000  0.000-   2 3.26   1 3.26   2 3.26   2 3.26   1 3.26   1 3.26
   4  0.211  0.211  0.211-   2 3.08   2 3.08   2 3.08
   5  0.789  0.789  0.789-   1 3.08   1 3.08   1 3.08


IMPORTANT INFORMATION: All symmetrisations will be switched off!
NOSYMM: (Re-)initialisation of all symmetry stuff for point group C_1.



 KPOINTS: k-points along high symmetry lines      
  k-points in reciprocal lattice
Space group operators:
 irot       det(A)        alpha          n_x          n_y          n_z        tau_x        tau_y        tau_z
    1     1.000000     0.000000     1.000000     0.000000     0.000000     0.000000     0.000000     0.000000


--------------------------------------------------------------------------------------------------------




 Dimension of arrays:
   k-points           NKPTS =    201   k-points in BZ     NKDIM =    201   number of bands    NBANDS=     88
   number of dos      NEDOS =    301   number of ions     NIONS =      5
   non local maximal  LDIM  =      5   non local SUM 2l+1 LMDIM =     13
   total plane-waves  NPLWV = 592704
   max r-space proj   IRMAX =      1   max aug-charges    IRDMAX= ******
   dimension x,y,z NGX =    84 NGY =   84 NGZ =   84
   dimension x,y,z NGXF=   168 NGYF=  168 NGZF=  168
   support grid    NGXF=   336 NGYF=  336 NGZF=  336
   ions per type =               2   3
   NGX,Y,Z   is equivalent  to a cutoff of  13.32, 13.32, 13.32 a.u.
   NGXF,Y,Z  is equivalent  to a cutoff of  26.65, 26.65, 26.65 a.u.

 SYSTEM =  BiTe                                    
 POSCAR =  Bi2 Te3                                 

 Startparameter for this run:
   NWRITE =      2    write-flag & timer
   PREC   = accura    normal or accurate (medium, high low for compatibility)
   ISTART =      0    job   : 0-new  1-cont  2-samecut
   ICHARG =     11    charge: 1-file 2-atom 10-const
   ISPIN  =      1    spin polarized calculation?
   LNONCOLLINEAR =      T non collinear calculations
   LSORBIT =      T    spin-orbit coupling
   INIWAV =      1    electr: 0-lowe 1-rand  2-diag
   LASPH  =      F    aspherical Exc in radial PAW
   METAGGA=      F    non-selfconsistent MetaGGA calc.

 Electronic Relaxation 1
   ENCUT  =  600.0 eV  44.10 Ry    6.64 a.u.  20.93 20.93 20.93*2*pi/ulx,y,z
   ENINI  =  600.0     initial cutoff
   ENAUG  =  368.8 eV  augmentation charge cutoff
   NELM   =     60;   NELMIN=  2; NELMDL=  0     # of ELM steps 
   EDIFF  = 0.1E-06   stopping-criterion for ELM
   LREAL  =      F    real-space projection
   NLSPLINE    = F    spline interpolate recip. space projectors
   LCOMPAT=      F    compatible to vasp.4.4
   GGA_COMPAT  = F    GGA compatible to vasp.4.4-vasp.4.6
   LMAXPAW     = -100 max onsite density
   LMAXMIX     =    4 max onsite mixed and CHGCAR
   VOSKOWN=      0    Vosko Wilk Nusair interpolation
   ROPT   =    0.00000   0.00000
 Ionic relaxation
   EDIFFG = -.1E-02   stopping-criterion for IOM
   NSW    =      0    number of steps for IOM
   NBLOCK =      1;   KBLOCK =      1    inner block; outer block 
   IBRION =     -1    ionic relax: 0-MD 1-quasi-New 2-CG
   NFREE  =      0    steps in history (QN), initial steepest desc. (CG)
   ISIF   =      2    stress and relaxation
   IWAVPR =     10    prediction:  0-non 1-charg 2-wave 3-comb
   ISYM   =     -1    0-nonsym 1-usesym 2-fastsym
   LCORR  =      T    Harris-Foulkes like correction to forces

   POTIM  = 0.5000    time-step for ionic-motion
   TEIN   =    0.0    initial temperature
   TEBEG  =    0.0;   TEEND  =   0.0 temperature during run
   SMASS  =  -3.00    Nose mass-parameter (am)
   estimated Nose-frequenzy (Omega)   =  0.10E-29 period in steps =****** mass=  -0.251E-26a.u.
   SCALEE = 1.0000    scale energy and forces
   NPACO  =    256;   APACO  = 16.0  distance and # of slots for P.C.
   PSTRESS=    0.0 pullay stress

  Mass of Ions in am
   POMASS = 208.98127.60
  Ionic Valenz
   ZVAL   =   5.00  6.00
  Atomic Wigner-Seitz radii
   RWIGS  =  -1.00 -1.00
  virtual crystal weights 
   VCA    =   1.00  1.00
   NELECT =      28.0000    total number of electrons
   NUPDOWN=      -1.0000    fix difference up-down

 DOS related values:
   EMIN   =  10.00;   EMAX   =-10.00  energy-range for DOS
   EFERMI =   0.00
   ISMEAR =     0;   SIGMA  =   0.01  broadening in eV -4-tet -1-fermi 0-gaus

 Electronic relaxation 2 (details)
   IALGO  =     58    algorithm
   LDIAG  =      T    sub-space diagonalisation (order eigenvalues)
   LSUBROT=      F    optimize rotation matrix (better conditioning)
   TURBO    =      0    0=normal 1=particle mesh
   IRESTART =      0    0=no restart 2=restart with 2 vectors
   NREBOOT  =      0    no. of reboots
   NMIN     =      0    reboot dimension
   EREF     =   0.00    reference energy to select bands
   IMIX   =      4    mixing-type and parameters
     AMIX     =   0.40;   BMIX     =  1.00
     AMIX_MAG =   1.60;   BMIX_MAG =  1.00
     AMIN     =   0.10
     WC   =   100.;   INIMIX=   1;  MIXPRE=   1;  MAXMIX= -45

 Intra band minimization:
   WEIMIN = 0.0000     energy-eigenvalue tresh-hold
   EBREAK =  0.28E-09  absolut break condition
   DEPER  =   0.30     relativ break condition  

   TIME   =   0.40     timestep for ELM

  volume/ion in A,a.u.               =      34.63       233.69
  Fermi-wavevector in a.u.,A,eV,Ry     =   0.891913  1.685471 10.823553  0.795509
  Thomas-Fermi vector in A             =   2.013794

 Write flags
   LWAVE        =      F    write WAVECAR
   LDOWNSAMPLE  =      F    k-point downsampling of WAVECAR
   LCHARG       =      F    write CHGCAR
   LVTOT        =      F    write LOCPOT, total local potential
   LVHAR        =      F    write LOCPOT, Hartree potential only
   LELF         =      F    write electronic localiz. function (ELF)
   LORBIT       =      0    0 simple, 1 ext, 2 COOP (PROOUT), +10 PAW based schemes


 Dipole corrections
   LMONO  =      F    monopole corrections only (constant potential shift)
   LDIPOL =      F    correct potential (dipole corrections)
   IDIPOL =      0    1-x, 2-y, 3-z, 4-all directions 
   EPSILON=  1.0000000 bulk dielectric constant

 Exchange correlation treatment:
   GGA     =    --    GGA type
   LEXCH   =     8    internal setting for exchange type
   VOSKOWN=      0    Vosko Wilk Nusair interpolation
   LHFCALC =     F    Hartree Fock is set to
   LHFONE  =     F    Hartree Fock one center treatment
   AEXX    =    0.0000 exact exchange contribution

 Linear response parameters
   LEPSILON=     F    determine dielectric tensor
   LRPA    =     F    only Hartree local field effects (RPA)
   LNABLA  =     F    use nabla operator in PAW spheres
   LVEL    =     F    velocity operator in full k-point grid
   LINTERFAST=   F  fast interpolation
   KINTER  =     0    interpolate to denser k-point grid
   CSHIFT  =0.1000    complex shift for real part using Kramers Kronig
   OMEGAMAX=  -1.0    maximum frequency
   DEG_THRESHOLD= 0.2000000E-02 threshold for treating states as degnerate
   RTIME   =   -0.100 relaxation time in fs
  (WPLASMAI=    0.000 imaginary part of plasma frequency in eV, 0.658/RTIME)
   DFIELD  = 0.0000000 0.0000000 0.0000000 field for delta impulse in time

 Orbital magnetization related:
   ORBITALMAG=     F  switch on orbital magnetization
   LCHIMAG   =     F  perturbation theory with respect to B field
   DQ        =  0.001000  dq finite difference perturbation B field
   LLRAUG    =     F  two centre corrections for induced B field



--------------------------------------------------------------------------------------------------------


 Static calculation
 charge density and potential remain constant during run
 non collinear spin polarized calculation
 Conjugate gradient for all bands (Freysoldt, et al. PRB 79, 241103 (2009))
 preconditioned conjugated gradient   charged. constant during bandupdate  
 perform sub-space diagonalisation
    before iterative eigenvector-optimisation
 no mixing
 using additional bands           74
 reciprocal scheme for non local part
 use partial core corrections
 calculate Harris-corrections to forces   (improved forces if not selfconsistent)
 use gradient corrections 
 WARNING: stress and forces are not correct
  (second derivative of E(xc) not defined)
 use of overlap-Matrix (Vanderbilt PP)
 Gauss-broadening in eV      SIGMA  =   0.01


--------------------------------------------------------------------------------------------------------


  energy-cutoff  :      600.00
  volume of cell :      173.15
      direct lattice vectors                 reciprocal lattice vectors
    10.243503987 -2.217673792  0.000000000     0.048811422 -0.225461473 -0.125049817
    10.243503987  2.217673792  0.000000000     0.048811422  0.225461473 -0.125049817
     9.763387315  0.000000000  3.810999753    -0.000000000  0.000000000  0.262398338

  length of vectors
    10.480813469 10.480813469 10.480813469     0.262398338  0.262398338  0.262398338



 k-points in units of 2pi/SCALE and weight: k-points along high symmetry lines      
   0.05668754 -0.10914049 -0.05636877       0.005
   0.05527035 -0.10641195 -0.05495954       0.005
   0.05385320 -0.10368364 -0.05355043       0.005
   0.05243601 -0.10095511 -0.05214120       0.005
   0.05101882 -0.09822657 -0.05073197       0.005
   0.04960163 -0.09549804 -0.04932273       0.005
   0.04818444 -0.09276951 -0.04791350       0.005
   0.04676725 -0.09004097 -0.04650427       0.005
   0.04535006 -0.08731244 -0.04509504       0.005
   0.04393287 -0.08458390 -0.04368581       0.005
   0.04251568 -0.08185537 -0.04227657       0.005
   0.04109849 -0.07912683 -0.04086734       0.005
   0.03968129 -0.07639830 -0.03945811       0.005
   0.03826410 -0.07366976 -0.03804888       0.005
   0.03684691 -0.07094123 -0.03663965       0.005
   0.03542972 -0.06821269 -0.03523041       0.005
   0.03401253 -0.06548416 -0.03382118       0.005
   0.03259539 -0.06275585 -0.03241208       0.005
   0.03117820 -0.06002731 -0.03100284       0.005
   0.02976101 -0.05729878 -0.02959361       0.005
   0.02834382 -0.05457024 -0.02818438       0.005
   0.02692663 -0.05184171 -0.02677515       0.005
   0.02550944 -0.04911317 -0.02536591       0.005
   0.02409224 -0.04638464 -0.02395668       0.005
   0.02267505 -0.04365611 -0.02254745       0.005
   0.02125781 -0.04092780 -0.02113836       0.005
   0.01984062 -0.03819926 -0.01972912       0.005
   0.01842343 -0.03547073 -0.01831989       0.005
   0.01700624 -0.03274219 -0.01691066       0.005
   0.01558905 -0.03001366 -0.01550143       0.005
   0.01417186 -0.02728512 -0.01409220       0.005
   0.01275467 -0.02455659 -0.01268296       0.005
   0.01133748 -0.02182805 -0.01127373       0.005
   0.00992034 -0.01909974 -0.00986462       0.005
   0.00850315 -0.01637121 -0.00845539       0.005
   0.00708595 -0.01364267 -0.00704616       0.005
   0.00566876 -0.01091414 -0.00563693       0.005
   0.00425157 -0.00818560 -0.00422770       0.005
   0.00283438 -0.00545707 -0.00281846       0.005
   0.00141719 -0.00272853 -0.00140923       0.005
   0.00000000  0.00000000  0.00000000       0.005
   0.00122029  0.00000000  0.00015373       0.005
   0.00244057  0.00000000  0.00030747       0.005
   0.00366086  0.00000000  0.00046120       0.005
   0.00488114  0.00000000  0.00061494       0.005
   0.00610143  0.00000000  0.00076867       0.005
   0.00732171  0.00000000  0.00092240       0.005
   0.00854200  0.00000000  0.00107614       0.005
   0.00976228  0.00000000  0.00122987       0.005
   0.01098257  0.00000000  0.00138360       0.005
   0.01220286  0.00000000  0.00153734       0.005
   0.01342314  0.00000000  0.00169107       0.005
   0.01464343  0.00000000  0.00184481       0.005
   0.01586371  0.00000000  0.00199854       0.005
   0.01708400  0.00000000  0.00215227       0.005
   0.01830428  0.00000000  0.00230601       0.005
   0.01952457  0.00000000  0.00245974       0.005
   0.02074485  0.00000000  0.00261347       0.005
   0.02196514  0.00000000  0.00276721       0.005
   0.02318543  0.00000000  0.00292094       0.005
   0.02440571  0.00000000  0.00307468       0.005
   0.02562600  0.00000000  0.00322841       0.005
   0.02684628  0.00000000  0.00338214       0.005
   0.02806657  0.00000000  0.00353588       0.005
   0.02928685  0.00000000  0.00368961       0.005
   0.03050714  0.00000000  0.00384334       0.005
   0.03172742  0.00000000  0.00399708       0.005
   0.03294771  0.00000000  0.00415081       0.005
   0.03416800  0.00000000  0.00430455       0.005
   0.03538828  0.00000000  0.00445828       0.005
   0.03660857  0.00000000  0.00461201       0.005
   0.03782885  0.00000000  0.00476575       0.005
   0.03904914  0.00000000  0.00491948       0.005
   0.04026942  0.00000000  0.00507322       0.005
   0.04148971  0.00000000  0.00522695       0.005
   0.04270999  0.00000000  0.00538068       0.005
   0.04393028  0.00000000  0.00553442       0.005
   0.04515057  0.00000000  0.00568815       0.005
   0.04637085  0.00000000  0.00584188       0.005
   0.04759114  0.00000000  0.00599562       0.005
   0.04881142  0.00000000  0.00614935       0.005
   0.04881142  0.00000000  0.00286937       0.005
   0.04881142  0.00000000 -0.00041061       0.005
   0.04881142  0.00000000 -0.00369059       0.005
   0.04881142  0.00000000 -0.00697057       0.005
   0.04881142  0.00000000 -0.01025054       0.005
   0.04881142  0.00000000 -0.01353052       0.005
   0.04881142  0.00000000 -0.01681050       0.005
   0.04881142  0.00000000 -0.02009048       0.005
   0.04881142  0.00000000 -0.02337046       0.005
   0.04881142  0.00000000 -0.02665044       0.005
   0.04881142  0.00000000 -0.02993042       0.005
   0.04881142  0.00000000 -0.03321040       0.005
   0.04881142  0.00000000 -0.03649038       0.005
   0.04881142  0.00000000 -0.03977036       0.005
   0.04881142  0.00000000 -0.04305034       0.005
   0.04881142  0.00000000 -0.04633032       0.005
   0.04881142  0.00000000 -0.04961030       0.005
   0.04881142  0.00000000 -0.05289027       0.005
   0.04881142  0.00000000 -0.05617025       0.005
   0.04881142  0.00000000 -0.05945023       0.005
   0.04881142  0.00000000 -0.06273021       0.005
   0.04881142  0.00000000 -0.06601019       0.005
   0.04881142  0.00000000 -0.06929017       0.005
   0.04881142  0.00000000 -0.07257015       0.005
   0.04881142  0.00000000 -0.07585013       0.005
   0.04881142  0.00000000 -0.07913011       0.005
   0.04881142  0.00000000 -0.08241009       0.005
   0.04881142  0.00000000 -0.08569007       0.005
   0.04881142  0.00000000 -0.08897005       0.005
   0.04881142  0.00000000 -0.09225002       0.005
   0.04881142  0.00000000 -0.09553000       0.005
   0.04881142  0.00000000 -0.09880998       0.005
   0.04881142  0.00000000 -0.10208996       0.005
   0.04881142  0.00000000 -0.10536994       0.005
   0.04881142  0.00000000 -0.10864992       0.005
   0.04881142  0.00000000 -0.11192990       0.005
   0.04881142  0.00000000 -0.11520988       0.005
   0.04881142  0.00000000 -0.11848986       0.005
   0.04881142  0.00000000 -0.12176984       0.005
   0.04881142  0.00000000 -0.12504982       0.005
   0.04759114  0.00000000 -0.12192357       0.005
   0.04637085  0.00000000 -0.11879733       0.005
   0.04515057  0.00000000 -0.11567108       0.005
   0.04393028  0.00000000 -0.11254484       0.005
   0.04270999  0.00000000 -0.10941859       0.005
   0.04148971  0.00000000 -0.10629234       0.005
   0.04026942  0.00000000 -0.10316610       0.005
   0.03904914  0.00000000 -0.10003985       0.005
   0.03782885  0.00000000 -0.09691361       0.005
   0.03660857  0.00000000 -0.09378736       0.005
   0.03538828  0.00000000 -0.09066112       0.005
   0.03416800  0.00000000 -0.08753487       0.005
   0.03294771  0.00000000 -0.08440863       0.005
   0.03172742  0.00000000 -0.08128238       0.005
   0.03050714  0.00000000 -0.07815614       0.005
   0.02928685  0.00000000 -0.07502989       0.005
   0.02806657  0.00000000 -0.07190364       0.005
   0.02684628  0.00000000 -0.06877740       0.005
   0.02562600  0.00000000 -0.06565115       0.005
   0.02440571  0.00000000 -0.06252491       0.005
   0.02318543  0.00000000 -0.05939866       0.005
   0.02196514  0.00000000 -0.05627242       0.005
   0.02074485  0.00000000 -0.05314617       0.005
   0.01952457  0.00000000 -0.05001993       0.005
   0.01830428  0.00000000 -0.04689368       0.005
   0.01708400  0.00000000 -0.04376744       0.005
   0.01586371  0.00000000 -0.04064119       0.005
   0.01464343  0.00000000 -0.03751495       0.005
   0.01342314  0.00000000 -0.03438870       0.005
   0.01220286  0.00000000 -0.03126245       0.005
   0.01098257  0.00000000 -0.02813621       0.005
   0.00976228  0.00000000 -0.02500996       0.005
   0.00854200  0.00000000 -0.02188372       0.005
   0.00732171  0.00000000 -0.01875747       0.005
   0.00610143  0.00000000 -0.01563123       0.005
   0.00488114  0.00000000 -0.01250498       0.005
   0.00366086  0.00000000 -0.00937874       0.005
   0.00244057  0.00000000 -0.00625249       0.005
   0.00122029  0.00000000 -0.00312625       0.005
   0.00000000  0.00000000  0.00000000       0.005
   0.00131874 -0.00136427 -0.00062775       0.005
   0.00263748 -0.00272853 -0.00125550       0.005
   0.00395621 -0.00409280 -0.00188325       0.005
   0.00527495 -0.00545707 -0.00251100       0.005
   0.00659369 -0.00682134 -0.00313875       0.005
   0.00791243 -0.00818560 -0.00376649       0.005
   0.00923117 -0.00954987 -0.00439424       0.005
   0.01054991 -0.01091414 -0.00502199       0.005
   0.01186864 -0.01227841 -0.00564974       0.005
   0.01318738 -0.01364267 -0.00627749       0.005
   0.01450612 -0.01500694 -0.00690524       0.005
   0.01582486 -0.01637121 -0.00753299       0.005
   0.01714360 -0.01773548 -0.00816074       0.005
   0.01846233 -0.01909974 -0.00878849       0.005
   0.01978107 -0.02046401 -0.00941624       0.005
   0.02109976 -0.02182805 -0.01004386       0.005
   0.02241850 -0.02319232 -0.01067161       0.005
   0.02373724 -0.02455659 -0.01129936       0.005
   0.02505598 -0.02592085 -0.01192711       0.005
   0.02637472 -0.02728512 -0.01255486       0.005
   0.02769345 -0.02864939 -0.01318261       0.005
   0.02901219 -0.03001366 -0.01381036       0.005
   0.03033093 -0.03137792 -0.01443811       0.005
   0.03164967 -0.03274219 -0.01506585       0.005
   0.03296841 -0.03410646 -0.01569360       0.005
   0.03428714 -0.03547073 -0.01632135       0.005
   0.03560588 -0.03683499 -0.01694910       0.005
   0.03692462 -0.03819926 -0.01757685       0.005
   0.03824336 -0.03956353 -0.01820460       0.005
   0.03956210 -0.04092780 -0.01883235       0.005
   0.04088088 -0.04229184 -0.01945996       0.005
   0.04219962 -0.04365611 -0.02008771       0.005
   0.04351836 -0.04502037 -0.02071546       0.005
   0.04483710 -0.04638464 -0.02134321       0.005
   0.04615584 -0.04774891 -0.02197096       0.005
   0.04747458 -0.04911317 -0.02259871       0.005
   0.04879331 -0.05047744 -0.02322646       0.005
   0.05011205 -0.05184171 -0.02385420       0.005
   0.05143079 -0.05320598 -0.02448195       0.005
   0.05274953 -0.05457024 -0.02510970       0.005

 k-points in reciprocal lattice and weights: k-points along high symmetry lines      
   0.82271700  0.33864100  0.33864100       0.005
   0.80214900  0.33017500  0.33017500       0.005
   0.78158200  0.32170900  0.32170900       0.005
   0.76101400  0.31324300  0.31324300       0.005
   0.74044600  0.30477700  0.30477700       0.005
   0.71987800  0.29631100  0.29631100       0.005
   0.69931000  0.28784500  0.28784500       0.005
   0.67874200  0.27937900  0.27937900       0.005
   0.65817400  0.27091300  0.27091300       0.005
   0.63760600  0.26244700  0.26244700       0.005
   0.61703800  0.25398100  0.25398100       0.005
   0.59647000  0.24551500  0.24551500       0.005
   0.57590200  0.23704900  0.23704900       0.005
   0.55533400  0.22858300  0.22858300       0.005
   0.53476600  0.22011700  0.22011700       0.005
   0.51419800  0.21165100  0.21165100       0.005
   0.49363000  0.20318500  0.20318500       0.005
   0.47306300  0.19471900  0.19471900       0.005
   0.45249500  0.18625300  0.18625300       0.005
   0.43192700  0.17778700  0.17778700       0.005
   0.41135900  0.16932100  0.16932100       0.005
   0.39079100  0.16085500  0.16085500       0.005
   0.37022300  0.15238900  0.15238900       0.005
   0.34965500  0.14392300  0.14392300       0.005
   0.32908700  0.13545700  0.13545700       0.005
   0.30851900  0.12699000  0.12699000       0.005
   0.28795100  0.11852400  0.11852400       0.005
   0.26738300  0.11005800  0.11005800       0.005
   0.24681500  0.10159200  0.10159200       0.005
   0.22624700  0.09312600  0.09312600       0.005
   0.20567900  0.08466000  0.08466000       0.005
   0.18511100  0.07619400  0.07619400       0.005
   0.16454300  0.06772800  0.06772800       0.005
   0.14397600  0.05926200  0.05926200       0.005
   0.12340800  0.05079600  0.05079600       0.005
   0.10284000  0.04233000  0.04233000       0.005
   0.08227200  0.03386400  0.03386400       0.005
   0.06170400  0.02539800  0.02539800       0.005
   0.04113600  0.01693200  0.01693200       0.005
   0.02056800  0.00846600  0.00846600       0.005
  -0.00000000  0.00000000  0.00000000       0.005
   0.01250000  0.01250000  0.01250000       0.005
   0.02500000  0.02500000  0.02500000       0.005
   0.03750000  0.03750000  0.03750000       0.005
   0.05000000  0.05000000  0.05000000       0.005
   0.06250000  0.06250000  0.06250000       0.005
   0.07500000  0.07500000  0.07500000       0.005
   0.08750000  0.08750000  0.08750000       0.005
   0.10000000  0.10000000  0.10000000       0.005
   0.11250000  0.11250000  0.11250000       0.005
   0.12500000  0.12500000  0.12500000       0.005
   0.13750000  0.13750000  0.13750000       0.005
   0.15000000  0.15000000  0.15000000       0.005
   0.16250000  0.16250000  0.16250000       0.005
   0.17500000  0.17500000  0.17500000       0.005
   0.18750000  0.18750000  0.18750000       0.005
   0.20000000  0.20000000  0.20000000       0.005
   0.21250000  0.21250000  0.21250000       0.005
   0.22500000  0.22500000  0.22500000       0.005
   0.23750000  0.23750000  0.23750000       0.005
   0.25000000  0.25000000  0.25000000       0.005
   0.26250000  0.26250000  0.26250000       0.005
   0.27500000  0.27500000  0.27500000       0.005
   0.28750000  0.28750000  0.28750000       0.005
   0.30000000  0.30000000  0.30000000       0.005
   0.31250000  0.31250000  0.31250000       0.005
   0.32500000  0.32500000  0.32500000       0.005
   0.33750000  0.33750000  0.33750000       0.005
   0.35000000  0.35000000  0.35000000       0.005
   0.36250000  0.36250000  0.36250000       0.005
   0.37500000  0.37500000  0.37500000       0.005
   0.38750000  0.38750000  0.38750000       0.005
   0.40000000  0.40000000  0.40000000       0.005
   0.41250000  0.41250000  0.41250000       0.005
   0.42500000  0.42500000  0.42500000       0.005
   0.43750000  0.43750000  0.43750000       0.005
   0.45000000  0.45000000  0.45000000       0.005
   0.46250000  0.46250000  0.46250000       0.005
   0.47500000  0.47500000  0.47500000       0.005
   0.48750000  0.48750000  0.48750000       0.005
   0.50000000  0.50000000  0.50000000       0.005
   0.50000000  0.50000000  0.48750000       0.005
   0.50000000  0.50000000  0.47500000       0.005
   0.50000000  0.50000000  0.46250000       0.005
   0.50000000  0.50000000  0.45000000       0.005
   0.50000000  0.50000000  0.43750000       0.005
   0.50000000  0.50000000  0.42500000       0.005
   0.50000000  0.50000000  0.41250000       0.005
   0.50000000  0.50000000  0.40000000       0.005
   0.50000000  0.50000000  0.38750000       0.005
   0.50000000  0.50000000  0.37500000       0.005
   0.50000000  0.50000000  0.36250000       0.005
   0.50000000  0.50000000  0.35000000       0.005
   0.50000000  0.50000000  0.33750000       0.005
   0.50000000  0.50000000  0.32500000       0.005
   0.50000000  0.50000000  0.31250000       0.005
   0.50000000  0.50000000  0.30000000       0.005
   0.50000000  0.50000000  0.28750000       0.005
   0.50000000  0.50000000  0.27500000       0.005
   0.50000000  0.50000000  0.26250000       0.005
   0.50000000  0.50000000  0.25000000       0.005
   0.50000000  0.50000000  0.23750000       0.005
   0.50000000  0.50000000  0.22500000       0.005
   0.50000000  0.50000000  0.21250000       0.005
   0.50000000  0.50000000  0.20000000       0.005
   0.50000000  0.50000000  0.18750000       0.005
   0.50000000  0.50000000  0.17500000       0.005
   0.50000000  0.50000000  0.16250000       0.005
   0.50000000  0.50000000  0.15000000       0.005
   0.50000000  0.50000000  0.13750000       0.005
   0.50000000  0.50000000  0.12500000       0.005
   0.50000000  0.50000000  0.11250000       0.005
   0.50000000  0.50000000  0.10000000       0.005
   0.50000000  0.50000000  0.08750000       0.005
   0.50000000  0.50000000  0.07500000       0.005
   0.50000000  0.50000000  0.06250000       0.005
   0.50000000  0.50000000  0.05000000       0.005
   0.50000000  0.50000000  0.03750000       0.005
   0.50000000  0.50000000  0.02500000       0.005
   0.50000000  0.50000000  0.01250000       0.005
   0.50000000  0.50000000  0.00000000       0.005
   0.48750000  0.48750000  0.00000000       0.005
   0.47500000  0.47500000  0.00000000       0.005
   0.46250000  0.46250000  0.00000000       0.005
   0.45000000  0.45000000  0.00000000       0.005
   0.43750000  0.43750000  0.00000000       0.005
   0.42500000  0.42500000  0.00000000       0.005
   0.41250000  0.41250000  0.00000000       0.005
   0.40000000  0.40000000  0.00000000       0.005
   0.38750000  0.38750000  0.00000000       0.005
   0.37500000  0.37500000  0.00000000       0.005
   0.36250000  0.36250000  0.00000000       0.005
   0.35000000  0.35000000  0.00000000       0.005
   0.33750000  0.33750000  0.00000000       0.005
   0.32500000  0.32500000  0.00000000       0.005
   0.31250000  0.31250000  0.00000000       0.005
   0.30000000  0.30000000  0.00000000       0.005
   0.28750000  0.28750000  0.00000000       0.005
   0.27500000  0.27500000  0.00000000       0.005
   0.26250000  0.26250000  0.00000000       0.005
   0.25000000  0.25000000  0.00000000       0.005
   0.23750000  0.23750000  0.00000000       0.005
   0.22500000  0.22500000  0.00000000       0.005
   0.21250000  0.21250000  0.00000000       0.005
   0.20000000  0.20000000  0.00000000       0.005
   0.18750000  0.18750000  0.00000000       0.005
   0.17500000  0.17500000  0.00000000       0.005
   0.16250000  0.16250000  0.00000000       0.005
   0.15000000  0.15000000  0.00000000       0.005
   0.13750000  0.13750000  0.00000000       0.005
   0.12500000  0.12500000  0.00000000       0.005
   0.11250000  0.11250000  0.00000000       0.005
   0.10000000  0.10000000  0.00000000       0.005
   0.08750000  0.08750000  0.00000000       0.005
   0.07500000  0.07500000  0.00000000       0.005
   0.06250000  0.06250000  0.00000000       0.005
   0.05000000  0.05000000  0.00000000       0.005
   0.03750000  0.03750000  0.00000000       0.005
   0.02500000  0.02500000  0.00000000       0.005
   0.01250000  0.01250000  0.00000000       0.005
  -0.00000000  0.00000000  0.00000000       0.005
   0.01653400  0.01048300  0.01048300       0.005
   0.03306800  0.02096600  0.02096600       0.005
   0.04960200  0.03144900  0.03144900       0.005
   0.06613600  0.04193200  0.04193200       0.005
   0.08267000  0.05241500  0.05241500       0.005
   0.09920400  0.06289800  0.06289800       0.005
   0.11573800  0.07338100  0.07338100       0.005
   0.13227200  0.08386400  0.08386400       0.005
   0.14880600  0.09434700  0.09434700       0.005
   0.16534000  0.10483000  0.10483000       0.005
   0.18187400  0.11531300  0.11531300       0.005
   0.19840800  0.12579600  0.12579600       0.005
   0.21494200  0.13627900  0.13627900       0.005
   0.23147600  0.14676200  0.14676200       0.005
   0.24801000  0.15724500  0.15724500       0.005
   0.26454300  0.16772800  0.16772800       0.005
   0.28107700  0.17821100  0.17821100       0.005
   0.29761100  0.18869400  0.18869400       0.005
   0.31414500  0.19917700  0.19917700       0.005
   0.33067900  0.20966000  0.20966000       0.005
   0.34721300  0.22014300  0.22014300       0.005
   0.36374700  0.23062600  0.23062600       0.005
   0.38028100  0.24110900  0.24110900       0.005
   0.39681500  0.25159200  0.25159200       0.005
   0.41334900  0.26207500  0.26207500       0.005
   0.42988300  0.27255800  0.27255800       0.005
   0.44641700  0.28304100  0.28304100       0.005
   0.46295100  0.29352400  0.29352400       0.005
   0.47948500  0.30400700  0.30400700       0.005
   0.49601900  0.31449000  0.31449000       0.005
   0.51255300  0.32497400  0.32497400       0.005
   0.52908700  0.33545700  0.33545700       0.005
   0.54562100  0.34594000  0.34594000       0.005
   0.56215500  0.35642300  0.35642300       0.005
   0.57868900  0.36690600  0.36690600       0.005
   0.59522300  0.37738900  0.37738900       0.005
   0.61175700  0.38787200  0.38787200       0.005
   0.62829100  0.39835500  0.39835500       0.005
   0.64482500  0.40883800  0.40883800       0.005
   0.66135900  0.41932100  0.41932100       0.005

 position of ions in fractional coordinates (direct lattice) 
   0.39969707  0.39969707  0.39969707
   0.60030293  0.60030293  0.60030293
   0.00000000  0.00000000  0.00000000
   0.21071601  0.21071601  0.21071601
   0.78928399  0.78928399  0.78928399

 position of ions in cartesian coordinates  (Angst):
  12.09099440  0.00000000  1.52324544
  18.15940089  0.00000000  2.28775431
   0.00000000  0.00000000  0.00000000
   6.37424249  0.00000000  0.80303865
  23.87615279  0.00000000  3.00796110

 Euler angles ALPHA=     0.0000000  BETA=     0.0000000

 transformation matrix from SAXIS to cartesian coordinates
 ---------------------------------------------------------
     1.0000000 m_x    -0.0000000 m_y     0.0000000 m_z
     0.0000000 m_x     1.0000000 m_y     0.0000000 m_z
    -0.0000000 m_x     0.0000000 m_y     1.0000000 m_z

 transformation matrix from cartesian coordinates to SAXIS
 ---------------------------------------------------------
     1.0000000 m_x     0.0000000 m_y    -0.0000000 m_z
    -0.0000000 m_x     1.0000000 m_y     0.0000000 m_z
     0.0000000 m_x     0.0000000 m_y     1.0000000 m_z




--------------------------------------------------------------------------------------------------------


 k-point  1 :   0.8227 0.3386 0.3386  plane waves:   11550
 k-point  2 :   0.8021 0.3302 0.3302  plane waves:   11562
 k-point  3 :   0.7816 0.3217 0.3217  plane waves:   11584
 k-point  4 :   0.7610 0.3132 0.3132  plane waves:   11578
 k-point  5 :   0.7404 0.3048 0.3048  plane waves:   11594
 k-point  6 :   0.7199 0.2963 0.2963  plane waves:   11572
 k-point  7 :   0.6993 0.2878 0.2878  plane waves:   11578
 k-point  8 :   0.6787 0.2794 0.2794  plane waves:   11592
 k-point  9 :   0.6582 0.2709 0.2709  plane waves:   11580
 k-point 10 :   0.6376 0.2624 0.2624  plane waves:   11570
 k-point 11 :   0.6170 0.2540 0.2540  plane waves:   11582
 k-point 12 :   0.5965 0.2455 0.2455  plane waves:   11578
 k-point 13 :   0.5759 0.2370 0.2370  plane waves:   11576
 k-point 14 :   0.5553 0.2286 0.2286  plane waves:   11568
 k-point 15 :   0.5348 0.2201 0.2201  plane waves:   11550
 k-point 16 :   0.5142 0.2117 0.2117  plane waves:   11548
 k-point 17 :   0.4936 0.2032 0.2032  plane waves:   11544
 k-point 18 :   0.4731 0.1947 0.1947  plane waves:   11562
 k-point 19 :   0.4525 0.1863 0.1863  plane waves:   11564
 k-point 20 :   0.4319 0.1778 0.1778  plane waves:   11552
 k-point 21 :   0.4114 0.1693 0.1693  plane waves:   11536
 k-point 22 :   0.3908 0.1609 0.1609  plane waves:   11524
 k-point 23 :   0.3702 0.1524 0.1524  plane waves:   11508
 k-point 24 :   0.3497 0.1439 0.1439  plane waves:   11514
 k-point 25 :   0.3291 0.1355 0.1355  plane waves:   11506
 k-point 26 :   0.3085 0.1270 0.1270  plane waves:   11502
 k-point 27 :   0.2880 0.1185 0.1185  plane waves:   11514
 k-point 28 :   0.2674 0.1101 0.1101  plane waves:   11524
 k-point 29 :   0.2468 0.1016 0.1016  plane waves:   11516
 k-point 30 :   0.2262 0.0931 0.0931  plane waves:   11526
 k-point 31 :   0.2057 0.0847 0.0847  plane waves:   11524
 k-point 32 :   0.1851 0.0762 0.0762  plane waves:   11536
 k-point 33 :   0.1645 0.0677 0.0677  plane waves:   11532
 k-point 34 :   0.1440 0.0593 0.0593  plane waves:   11532
 k-point 35 :   0.1234 0.0508 0.0508  plane waves:   11530
 k-point 36 :   0.1028 0.0423 0.0423  plane waves:   11526
 k-point 37 :   0.0823 0.0339 0.0339  plane waves:   11528
 k-point 38 :   0.0617 0.0254 0.0254  plane waves:   11534
 k-point 39 :   0.0411 0.0169 0.0169  plane waves:   11538
 k-point 40 :   0.0206 0.0085 0.0085  plane waves:   11534
 k-point 41 :  -0.0000 0.0000 0.0000  plane waves:   11530
 k-point 42 :   0.0125 0.0125 0.0125  plane waves:   11536
 k-point 43 :   0.0250 0.0250 0.0250  plane waves:   11536
 k-point 44 :   0.0375 0.0375 0.0375  plane waves:   11518
 k-point 45 :   0.0500 0.0500 0.0500  plane waves:   11518
 k-point 46 :   0.0625 0.0625 0.0625  plane waves:   11512
 k-point 47 :   0.0750 0.0750 0.0750  plane waves:   11530
 k-point 48 :   0.0875 0.0875 0.0875  plane waves:   11530
 k-point 49 :   0.1000 0.1000 0.1000  plane waves:   11530
 k-point 50 :   0.1125 0.1125 0.1125  plane waves:   11518
 k-point 51 :   0.1250 0.1250 0.1250  plane waves:   11518
 k-point 52 :   0.1375 0.1375 0.1375  plane waves:   11530
 k-point 53 :   0.1500 0.1500 0.1500  plane waves:   11530
 k-point 54 :   0.1625 0.1625 0.1625  plane waves:   11530
 k-point 55 :   0.1750 0.1750 0.1750  plane waves:   11530
 k-point 56 :   0.1875 0.1875 0.1875  plane waves:   11530
 k-point 57 :   0.2000 0.2000 0.2000  plane waves:   11530
 k-point 58 :   0.2125 0.2125 0.2125  plane waves:   11548
 k-point 59 :   0.2250 0.2250 0.2250  plane waves:   11548
 k-point 60 :   0.2375 0.2375 0.2375  plane waves:   11560
 k-point 61 :   0.2500 0.2500 0.2500  plane waves:   11560
 k-point 62 :   0.2625 0.2625 0.2625  plane waves:   11536
 k-point 63 :   0.2750 0.2750 0.2750  plane waves:   11536
 k-point 64 :   0.2875 0.2875 0.2875  plane waves:   11536
 k-point 65 :   0.3000 0.3000 0.3000  plane waves:   11534
 k-point 66 :   0.3125 0.3125 0.3125  plane waves:   11534
 k-point 67 :   0.3250 0.3250 0.3250  plane waves:   11546
 k-point 68 :   0.3375 0.3375 0.3375  plane waves:   11546
 k-point 69 :   0.3500 0.3500 0.3500  plane waves:   11552
 k-point 70 :   0.3625 0.3625 0.3625  plane waves:   11582
 k-point 71 :   0.3750 0.3750 0.3750  plane waves:   11570
 k-point 72 :   0.3875 0.3875 0.3875  plane waves:   11558
 k-point 73 :   0.4000 0.4000 0.4000  plane waves:   11582
 k-point 74 :   0.4125 0.4125 0.4125  plane waves:   11594
 k-point 75 :   0.4250 0.4250 0.4250  plane waves:   11606
 k-point 76 :   0.4375 0.4375 0.4375  plane waves:   11606
 k-point 77 :   0.4500 0.4500 0.4500  plane waves:   11606
 k-point 78 :   0.4625 0.4625 0.4625  plane waves:   11600
 k-point 79 :   0.4750 0.4750 0.4750  plane waves:   11600
 k-point 80 :   0.4875 0.4875 0.4875  plane waves:   11600
 k-point 81 :   0.5000 0.5000 0.5000  plane waves:   11600
 k-point 82 :   0.5000 0.5000 0.4875  plane waves:   11584
 k-point 83 :   0.5000 0.5000 0.4750  plane waves:   11562
 k-point 84 :   0.5000 0.5000 0.4625  plane waves:   11562
 k-point 85 :   0.5000 0.5000 0.4500  plane waves:   11546
 k-point 86 :   0.5000 0.5000 0.4375  plane waves:   11546
 k-point 87 :   0.5000 0.5000 0.4250  plane waves:   11532
 k-point 88 :   0.5000 0.5000 0.4125  plane waves:   11534
 k-point 89 :   0.5000 0.5000 0.4000  plane waves:   11524
 k-point 90 :   0.5000 0.5000 0.3875  plane waves:   11520
 k-point 91 :   0.5000 0.5000 0.3750  plane waves:   11512
 k-point 92 :   0.5000 0.5000 0.3625  plane waves:   11504
 k-point 93 :   0.5000 0.5000 0.3500  plane waves:   11520
 k-point 94 :   0.5000 0.5000 0.3375  plane waves:   11536
 k-point 95 :   0.5000 0.5000 0.3250  plane waves:   11530
 k-point 96 :   0.5000 0.5000 0.3125  plane waves:   11540
 k-point 97 :   0.5000 0.5000 0.3000  plane waves:   11540
 k-point 98 :   0.5000 0.5000 0.2875  plane waves:   11552
 k-point 99 :   0.5000 0.5000 0.2750  plane waves:   11544
 k-point ** :   0.5000 0.5000 0.2625  plane waves:   11546
 k-point ** :   0.5000 0.5000 0.2500  plane waves:   11550
 k-point ** :   0.5000 0.5000 0.2375  plane waves:   11538
 k-point ** :   0.5000 0.5000 0.2250  plane waves:   11564
 k-point ** :   0.5000 0.5000 0.2125  plane waves:   11564
 k-point ** :   0.5000 0.5000 0.2000  plane waves:   11562
 k-point ** :   0.5000 0.5000 0.1875  plane waves:   11578
 k-point ** :   0.5000 0.5000 0.1750  plane waves:   11564
 k-point ** :   0.5000 0.5000 0.1625  plane waves:   11562
 k-point ** :   0.5000 0.5000 0.1500  plane waves:   11588
 k-point ** :   0.5000 0.5000 0.1375  plane waves:   11582
 k-point ** :   0.5000 0.5000 0.1250  plane waves:   11578
 k-point ** :   0.5000 0.5000 0.1125  plane waves:   11576
 k-point ** :   0.5000 0.5000 0.1000  plane waves:   11572
 k-point ** :   0.5000 0.5000 0.0875  plane waves:   11566
 k-point ** :   0.5000 0.5000 0.0750  plane waves:   11560
 k-point ** :   0.5000 0.5000 0.0625  plane waves:   11544
 k-point ** :   0.5000 0.5000 0.0500  plane waves:   11534
 k-point ** :   0.5000 0.5000 0.0375  plane waves:   11554
 k-point ** :   0.5000 0.5000 0.0250  plane waves:   11552
 k-point ** :   0.5000 0.5000 0.0125  plane waves:   11564
 k-point ** :   0.5000 0.5000 0.0000  plane waves:   11580
 k-point ** :   0.4875 0.4875 0.0000  plane waves:   11564
 k-point ** :   0.4750 0.4750 0.0000  plane waves:   11556
 k-point ** :   0.4625 0.4625 0.0000  plane waves:   11566
 k-point ** :   0.4500 0.4500 0.0000  plane waves:   11554
 k-point ** :   0.4375 0.4375 0.0000  plane waves:   11544
 k-point ** :   0.4250 0.4250 0.0000  plane waves:   11558
 k-point ** :   0.4125 0.4125 0.0000  plane waves:   11562
 k-point ** :   0.4000 0.4000 0.0000  plane waves:   11562
 k-point ** :   0.3875 0.3875 0.0000  plane waves:   11558
 k-point ** :   0.3750 0.3750 0.0000  plane waves:   11568
 k-point ** :   0.3625 0.3625 0.0000  plane waves:   11552
 k-point ** :   0.3500 0.3500 0.0000  plane waves:   11536
 k-point ** :   0.3375 0.3375 0.0000  plane waves:   11538
 k-point ** :   0.3250 0.3250 0.0000  plane waves:   11532
 k-point ** :   0.3125 0.3125 0.0000  plane waves:   11530
 k-point ** :   0.3000 0.3000 0.0000  plane waves:   11522
 k-point ** :   0.2875 0.2875 0.0000  plane waves:   11518
 k-point ** :   0.2750 0.2750 0.0000  plane waves:   11524
 k-point ** :   0.2625 0.2625 0.0000  plane waves:   11528
 k-point ** :   0.2500 0.2500 0.0000  plane waves:   11520
 k-point ** :   0.2375 0.2375 0.0000  plane waves:   11532
 k-point ** :   0.2250 0.2250 0.0000  plane waves:   11548
 k-point ** :   0.2125 0.2125 0.0000  plane waves:   11536
 k-point ** :   0.2000 0.2000 0.0000  plane waves:   11540
 k-point ** :   0.1875 0.1875 0.0000  plane waves:   11544
 k-point ** :   0.1750 0.1750 0.0000  plane waves:   11530
 k-point ** :   0.1625 0.1625 0.0000  plane waves:   11524
 k-point ** :   0.1500 0.1500 0.0000  plane waves:   11508
 k-point ** :   0.1375 0.1375 0.0000  plane waves:   11520
 k-point ** :   0.1250 0.1250 0.0000  plane waves:   11526
 k-point ** :   0.1125 0.1125 0.0000  plane waves:   11546
 k-point ** :   0.1000 0.1000 0.0000  plane waves:   11542
 k-point ** :   0.0875 0.0875 0.0000  plane waves:   11550
 k-point ** :   0.0750 0.0750 0.0000  plane waves:   11562
 k-point ** :   0.0625 0.0625 0.0000  plane waves:   11534
 k-point ** :   0.0500 0.0500 0.0000  plane waves:   11528
 k-point ** :   0.0375 0.0375 0.0000  plane waves:   11528
 k-point ** :   0.0250 0.0250 0.0000  plane waves:   11532
 k-point ** :   0.0125 0.0125 0.0000  plane waves:   11540
 k-point ** :  -0.0000 0.0000 0.0000  plane waves:   11530
 k-point ** :   0.0165 0.0105 0.0105  plane waves:   11538
 k-point ** :   0.0331 0.0210 0.0210  plane waves:   11538
 k-point ** :   0.0496 0.0314 0.0314  plane waves:   11538
 k-point ** :   0.0661 0.0419 0.0419  plane waves:   11530
 k-point ** :   0.0827 0.0524 0.0524  plane waves:   11536
 k-point ** :   0.0992 0.0629 0.0629  plane waves:   11536
 k-point ** :   0.1157 0.0734 0.0734  plane waves:   11552
 k-point ** :   0.1323 0.0839 0.0839  plane waves:   11548
 k-point ** :   0.1488 0.0943 0.0943  plane waves:   11540
 k-point ** :   0.1653 0.1048 0.1048  plane waves:   11540
 k-point ** :   0.1819 0.1153 0.1153  plane waves:   11544
 k-point ** :   0.1984 0.1258 0.1258  plane waves:   11536
 k-point ** :   0.2149 0.1363 0.1363  plane waves:   11536
 k-point ** :   0.2315 0.1468 0.1468  plane waves:   11524
 k-point ** :   0.2480 0.1572 0.1572  plane waves:   11522
 k-point ** :   0.2645 0.1677 0.1677  plane waves:   11522
 k-point ** :   0.2811 0.1782 0.1782  plane waves:   11514
 k-point ** :   0.2976 0.1887 0.1887  plane waves:   11510
 k-point ** :   0.3141 0.1992 0.1992  plane waves:   11522
 k-point ** :   0.3307 0.2097 0.2097  plane waves:   11510
 k-point ** :   0.3472 0.2201 0.2201  plane waves:   11510
 k-point ** :   0.3637 0.2306 0.2306  plane waves:   11502
 k-point ** :   0.3803 0.2411 0.2411  plane waves:   11500
 k-point ** :   0.3968 0.2516 0.2516  plane waves:   11486
 k-point ** :   0.4133 0.2621 0.2621  plane waves:   11496
 k-point ** :   0.4299 0.2726 0.2726  plane waves:   11512
 k-point ** :   0.4464 0.2830 0.2830  plane waves:   11508
 k-point ** :   0.4630 0.2935 0.2935  plane waves:   11518
 k-point ** :   0.4795 0.3040 0.3040  plane waves:   11518
 k-point ** :   0.4960 0.3145 0.3145  plane waves:   11522
 k-point ** :   0.5126 0.3250 0.3250  plane waves:   11542
 k-point ** :   0.5291 0.3355 0.3355  plane waves:   11544
 k-point ** :   0.5456 0.3459 0.3459  plane waves:   11540
 k-point ** :   0.5622 0.3564 0.3564  plane waves:   11540
 k-point ** :   0.5787 0.3669 0.3669  plane waves:   11532
 k-point ** :   0.5952 0.3774 0.3774  plane waves:   11536
 k-point ** :   0.6118 0.3879 0.3879  plane waves:   11552
 k-point ** :   0.6283 0.3984 0.3984  plane waves:   11542
 k-point ** :   0.6448 0.4088 0.4088  plane waves:   11538
 k-point ** :   0.6614 0.4193 0.4193  plane waves:   11534

 maximum and minimum number of plane-waves per node :      5818     5728

 maximum number of plane-waves:     11606
 maximum index in each direction: 
   IXMAX=   20   IYMAX=   20   IZMAX=   20
   IXMIN=  -21   IYMIN=  -21   IZMIN=  -21


 parallel 3D FFT for wavefunctions:
    minimum data exchange during FFTs selected (reduces bandwidth)
 parallel 3D FFT for charge:
    minimum data exchange during FFTs selected (reduces bandwidth)


 total amount of memory used by VASP MPI-rank0  1767652. kBytes
=======================================================================

   base      :      30000. kBytes
   nonl-proj :     121977. kBytes
   fftplans  :     182239. kBytes
   grid      :     180182. kBytes
   one-center:         97. kBytes
   wavefun   :    1253157. kBytes

     INWAV:  cpu time    0.0000: real time    0.0001
 initial charge density was supplied:
 number of electron      28.0000000 magnetization      -0.0000596     -0.0000609     -0.0000606
 keeping initial charge density in first step


--------------------------------------------------------------------------------------------------------


 Maximum index for augmentation-charges       316429 (set IRDMAX)


--------------------------------------------------------------------------------------------------------


 First call to EWALD:  gamma=   0.318
 Maximum number of real-space cells 4x 4x 4
 Maximum number of reciprocal cells 5x 5x 5

    FEWALD:  cpu time    0.0011: real time    0.0011


--------------------------------------- Iteration      1(   1)  ---------------------------------------


    POTLOK:  cpu time    3.9803: real time    3.9808
    SETDIJ:  cpu time    6.5875: real time    6.5886
    TRIAL :  cpu time  742.9384: real time  743.0023
    CORREC:  cpu time    0.0066: real time    0.0066
    --------------------------------------------
      LOOP:  cpu time  754.0169: real time  754.0825

 eigenvalue-minimisations  : 35376
 total energy-change (2. order) : 0.1283254E+03  (-0.1461709E+04)
 number of electron      28.0000000 magnetization      -0.0000596     -0.0000609     -0.0000606
 augmentation part       28.0000000 magnetization      -0.0000596     -0.0000609     -0.0000606

 Free energy of the ion-electron system (eV)
  ---------------------------------------------------
  alpha Z        PSCENC =         5.98035775
  Ewald energy   TEWEN  =      -982.20696473
  -Hartree energ DENC   =       -60.56357031
  -exchange      EXHF   =         0.00000000
  -V(xc)+E(xc)   XCENC  =      -303.87205541
  PAW double counting   =      1904.69541230    -1555.66990822
  entropy T*S    EENTRO =        -0.00014065
  eigenvalues    EBANDS =       148.52076211
  atomic energy  EATOM  =       971.44149227
  ---------------------------------------------------
  free energy    TOTEN  =       128.32538513 eV

  energy without entropy =      128.32552578  energy(sigma->0) =      128.32545545


--------------------------------------------------------------------------------------------------------




--------------------------------------- Iteration      1(   2)  ---------------------------------------


    TRIAL :  cpu time  851.9430: real time  852.0009
    CORREC:  cpu time    0.0061: real time    0.0061
    --------------------------------------------
      LOOP:  cpu time  851.9494: real time  852.0073

 eigenvalue-minimisations  : 43712
 total energy-change (2. order) :-0.1269979E+03  (-0.1159902E+03)
 number of electron      28.0000000 magnetization      -0.0000596     -0.0000609     -0.0000606
 augmentation part       28.0000000 magnetization      -0.0000596     -0.0000609     -0.0000606

 Free energy of the ion-electron system (eV)
  ---------------------------------------------------
  alpha Z        PSCENC =         5.98035775
  Ewald energy   TEWEN  =      -982.20696473
  -Hartree energ DENC   =       -60.56357031
  -exchange      EXHF   =         0.00000000
  -V(xc)+E(xc)   XCENC  =      -303.87205541
  PAW double counting   =      1904.69541230    -1555.66990822
  entropy T*S    EENTRO =        -0.00003798
  eigenvalues    EBANDS =        21.52280017
  atomic energy  EATOM  =       971.44149227
  ---------------------------------------------------
  free energy    TOTEN  =         1.32752585 eV

  energy without entropy =        1.32756383  energy(sigma->0) =        1.32754484


--------------------------------------------------------------------------------------------------------




--------------------------------------- Iteration      1(   3)  ---------------------------------------


    TRIAL :  cpu time  828.0768: real time  828.1335
    CORREC:  cpu time    0.0023: real time    0.0023
    --------------------------------------------
      LOOP:  cpu time  828.0794: real time  828.1360

 eigenvalue-minimisations  : 41936
 total energy-change (2. order) :-0.1150276E+02  (-0.1122910E+02)
 number of electron      28.0000000 magnetization      -0.0000596     -0.0000609     -0.0000606
 augmentation part       28.0000000 magnetization      -0.0000596     -0.0000609     -0.0000606

 Free energy of the ion-electron system (eV)
  ---------------------------------------------------
  alpha Z        PSCENC =         5.98035775
  Ewald energy   TEWEN  =      -982.20696473
  -Hartree energ DENC   =       -60.56357031
  -exchange      EXHF   =         0.00000000
  -V(xc)+E(xc)   XCENC  =      -303.87205541
  PAW double counting   =      1904.69541230    -1555.66990822
  entropy T*S    EENTRO =        -0.00000000
  eigenvalues    EBANDS =        10.01999886
  atomic energy  EATOM  =       971.44149227
  ---------------------------------------------------
  free energy    TOTEN  =       -10.17523747 eV

  energy without entropy =      -10.17523747  energy(sigma->0) =      -10.17523747


--------------------------------------------------------------------------------------------------------




--------------------------------------- Iteration      1(   4)  ---------------------------------------


    TRIAL :  cpu time  839.9393: real time  839.9965
    CORREC:  cpu time    0.0023: real time    0.0023
    --------------------------------------------
      LOOP:  cpu time  839.9419: real time  839.9991

 eigenvalue-minimisations  : 42856
 total energy-change (2. order) :-0.3058224E+00  (-0.3055329E+00)
 number of electron      28.0000000 magnetization      -0.0000596     -0.0000609     -0.0000606
 augmentation part       28.0000000 magnetization      -0.0000596     -0.0000609     -0.0000606

 Free energy of the ion-electron system (eV)
  ---------------------------------------------------
  alpha Z        PSCENC =         5.98035775
  Ewald energy   TEWEN  =      -982.20696473
  -Hartree energ DENC   =       -60.56357031
  -exchange      EXHF   =         0.00000000
  -V(xc)+E(xc)   XCENC  =      -303.87205541
  PAW double counting   =      1904.69541230    -1555.66990822
  entropy T*S    EENTRO =        -0.00000000
  eigenvalues    EBANDS =         9.71417650
  atomic energy  EATOM  =       971.44149227
  ---------------------------------------------------
  free energy    TOTEN  =       -10.48105983 eV

  energy without entropy =      -10.48105983  energy(sigma->0) =      -10.48105983


--------------------------------------------------------------------------------------------------------




--------------------------------------- Iteration      1(   5)  ---------------------------------------


    TRIAL :  cpu time  815.1085: real time  815.1648
    CORREC:  cpu time    0.0023: real time    0.0023
    --------------------------------------------
      LOOP:  cpu time  815.1111: real time  815.1673

 eigenvalue-minimisations  : 40992
 total energy-change (2. order) :-0.7193079E-02  (-0.7192634E-02)
 number of electron      28.0000000 magnetization      -0.0000596     -0.0000609     -0.0000606
 augmentation part       28.0000000 magnetization      -0.0000596     -0.0000609     -0.0000606

 Free energy of the ion-electron system (eV)
  ---------------------------------------------------
  alpha Z        PSCENC =         5.98035775
  Ewald energy   TEWEN  =      -982.20696473
  -Hartree energ DENC   =       -60.56357031
  -exchange      EXHF   =         0.00000000
  -V(xc)+E(xc)   XCENC  =      -303.87205541
  PAW double counting   =      1904.69541230    -1555.66990822
  entropy T*S    EENTRO =        -0.00000000
  eigenvalues    EBANDS =         9.70698342
  atomic energy  EATOM  =       971.44149227
  ---------------------------------------------------
  free energy    TOTEN  =       -10.48825291 eV

  energy without entropy =      -10.48825291  energy(sigma->0) =      -10.48825291


--------------------------------------------------------------------------------------------------------




--------------------------------------- Iteration      1(   6)  ---------------------------------------


    TRIAL :  cpu time  547.6407: real time  548.2802
    CORREC:  cpu time  141.8222: real time  141.8366
    --------------------------------------------
      LOOP:  cpu time  689.4632: real time  690.1171

 eigenvalue-minimisations  :     0
 total energy-change (2. order) : 0.9094947E-12  (-0.2601181E-03)
 number of electron      28.0000000 magnetization      -0.0000596     -0.0000609     -0.0000606
 augmentation part       28.0000000 magnetization      -0.0000596     -0.0000609     -0.0000606

 Free energy of the ion-electron system (eV)
  ---------------------------------------------------
  alpha Z        PSCENC =         5.98035775
  Ewald energy   TEWEN  =      -982.20696473
  -Hartree energ DENC   =       -60.56357031
  -exchange      EXHF   =         0.00000000
  -V(xc)+E(xc)   XCENC  =      -303.87205541
  PAW double counting   =      1904.69541230    -1555.66990822
  entropy T*S    EENTRO =        -0.00000000
  eigenvalues    EBANDS =         9.70698342
  atomic energy  EATOM  =       971.44149227
  ---------------------------------------------------
  free energy    TOTEN  =       -10.48825291 eV

  energy without entropy =      -10.48825291  energy(sigma->0) =      -10.48825291


--------------------------------------------------------------------------------------------------------




--------------------------------------- Iteration      1(   7)  ---------------------------------------


    TRIAL :  cpu time  545.1477: real time  545.1884
    CORREC:  cpu time  142.7792: real time  142.8920
    --------------------------------------------
      LOOP:  cpu time  687.9279: real time  688.0807

 eigenvalue-minimisations  :     0
 total energy-change (2. order) :-0.2601180E-03  (-0.7168095E-04)
 number of electron      28.0000000 magnetization      -0.0000596     -0.0000609     -0.0000606
 augmentation part       28.0000000 magnetization      -0.0000596     -0.0000609     -0.0000606

 Free energy of the ion-electron system (eV)
  ---------------------------------------------------
  alpha Z        PSCENC =         5.98035775
  Ewald energy   TEWEN  =      -982.20696473
  -Hartree energ DENC   =       -60.56357031
  -exchange      EXHF   =         0.00000000
  -V(xc)+E(xc)   XCENC  =      -303.87205541
  PAW double counting   =      1904.69541230    -1555.66990822
  entropy T*S    EENTRO =        -0.00000000
  eigenvalues    EBANDS =         9.70672330
  atomic energy  EATOM  =       971.44149227
  ---------------------------------------------------
  free energy    TOTEN  =       -10.48851303 eV

  energy without entropy =      -10.48851303  energy(sigma->0) =      -10.48851303


--------------------------------------------------------------------------------------------------------




--------------------------------------- Iteration      1(   8)  ---------------------------------------


    TRIAL :  cpu time  543.9519: real time  543.9987
    CORREC:  cpu time  142.2616: real time  142.2758
    --------------------------------------------
      LOOP:  cpu time  686.2144: real time  686.2753

 eigenvalue-minimisations  :     0
 total energy-change (2. order) :-0.7168073E-04  (-0.2296863E-04)
 number of electron      28.0000000 magnetization      -0.0000596     -0.0000609     -0.0000606
 augmentation part       28.0000000 magnetization      -0.0000596     -0.0000609     -0.0000606

 Free energy of the ion-electron system (eV)
  ---------------------------------------------------
  alpha Z        PSCENC =         5.98035775
  Ewald energy   TEWEN  =      -982.20696473
  -Hartree energ DENC   =       -60.56357031
  -exchange      EXHF   =         0.00000000
  -V(xc)+E(xc)   XCENC  =      -303.87205541
  PAW double counting   =      1904.69541230    -1555.66990822
  entropy T*S    EENTRO =        -0.00000000
  eigenvalues    EBANDS =         9.70665162
  atomic energy  EATOM  =       971.44149227
  ---------------------------------------------------
  free energy    TOTEN  =       -10.48858471 eV

  energy without entropy =      -10.48858471  energy(sigma->0) =      -10.48858471


--------------------------------------------------------------------------------------------------------




--------------------------------------- Iteration      1(   9)  ---------------------------------------


    TRIAL :  cpu time  546.8738: real time  547.7502
    CORREC:  cpu time  142.2074: real time  142.2215
    --------------------------------------------
      LOOP:  cpu time  689.0815: real time  689.9720

 eigenvalue-minimisations  :     0
 total energy-change (2. order) :-0.2296847E-04  (-0.1723695E-05)
 number of electron      28.0000000 magnetization      -0.0000596     -0.0000609     -0.0000606
 augmentation part       28.0000000 magnetization      -0.0000596     -0.0000609     -0.0000606

 Free energy of the ion-electron system (eV)
  ---------------------------------------------------
  alpha Z        PSCENC =         5.98035775
  Ewald energy   TEWEN  =      -982.20696473
  -Hartree energ DENC   =       -60.56357031
  -exchange      EXHF   =         0.00000000
  -V(xc)+E(xc)   XCENC  =      -303.87205541
  PAW double counting   =      1904.69541230    -1555.66990822
  entropy T*S    EENTRO =        -0.00000000
  eigenvalues    EBANDS =         9.70662865
  atomic energy  EATOM  =       971.44149227
  ---------------------------------------------------
  free energy    TOTEN  =       -10.48860768 eV

  energy without entropy =      -10.48860768  energy(sigma->0) =      -10.48860768


--------------------------------------------------------------------------------------------------------




--------------------------------------- Iteration      1(  10)  ---------------------------------------


    TRIAL :  cpu time  542.4228: real time  542.4612
    CORREC:  cpu time  141.9374: real time  141.9515
    --------------------------------------------
      LOOP:  cpu time  684.3606: real time  684.4131

 eigenvalue-minimisations  :     0
 total energy-change (2. order) :-0.1724213E-05  (-0.1459736E-06)
 number of electron      28.0000000 magnetization      -0.0000596     -0.0000609     -0.0000606
 augmentation part       28.0000000 magnetization      -0.0000596     -0.0000609     -0.0000606

 Free energy of the ion-electron system (eV)
  ---------------------------------------------------
  alpha Z        PSCENC =         5.98035775
  Ewald energy   TEWEN  =      -982.20696473
  -Hartree energ DENC   =       -60.56357031
  -exchange      EXHF   =         0.00000000
  -V(xc)+E(xc)   XCENC  =      -303.87205541
  PAW double counting   =      1904.69541230    -1555.66990822
  entropy T*S    EENTRO =        -0.00000000
  eigenvalues    EBANDS =         9.70662693
  atomic energy  EATOM  =       971.44149227
  ---------------------------------------------------
  free energy    TOTEN  =       -10.48860940 eV

  energy without entropy =      -10.48860940  energy(sigma->0) =      -10.48860940


--------------------------------------------------------------------------------------------------------




--------------------------------------- Iteration      1(  11)  ---------------------------------------


    TRIAL :  cpu time  542.5340: real time  542.5723
    CORREC:  cpu time  142.1554: real time  142.1725
    --------------------------------------------
      LOOP:  cpu time  684.6897: real time  684.7452

 eigenvalue-minimisations  :     0
 total energy-change (2. order) :-0.1459737E-06  (-0.2798581E-07)
 number of electron      28.0000000 magnetization      -0.0000596     -0.0000609     -0.0000606
 augmentation part       28.0000000 magnetization      -0.0000596     -0.0000609     -0.0000606

 Free energy of the ion-electron system (eV)
  ---------------------------------------------------
  alpha Z        PSCENC =         5.98035775
  Ewald energy   TEWEN  =      -982.20696473
  -Hartree energ DENC   =       -60.56357031
  -exchange      EXHF   =         0.00000000
  -V(xc)+E(xc)   XCENC  =      -303.87205541
  PAW double counting   =      1904.69541230    -1555.66990822
  entropy T*S    EENTRO =        -0.00000000
  eigenvalues    EBANDS =         9.70662678
  atomic energy  EATOM  =       971.44149227
  ---------------------------------------------------
  free energy    TOTEN  =       -10.48860955 eV

  energy without entropy =      -10.48860955  energy(sigma->0) =      -10.48860955


--------------------------------------------------------------------------------------------------------




--------------------------------------- Iteration      1(  12)  ---------------------------------------


    TRIAL :  cpu time  542.5078: real time  542.5456
    CORREC:  cpu time  141.8160: real time  141.8302
    EDDIAG:  cpu time  221.5736: real time  221.5939
    --------------------------------------------
      LOOP:  cpu time  905.8977: real time  905.9700

 eigenvalue-minimisations  :     0
 total energy-change (2. order) :-0.2798333E-07  (-0.6996042E-08)
 number of electron      28.0000000 magnetization      -0.0000596     -0.0000609     -0.0000606
 augmentation part       28.0000000 magnetization      -0.0000596     -0.0000609     -0.0000606

 Free energy of the ion-electron system (eV)
  ---------------------------------------------------
  alpha Z        PSCENC =         5.98035775
  Ewald energy   TEWEN  =      -982.20696473
  -Hartree energ DENC   =       -60.56357031
  -exchange      EXHF   =         0.00000000
  -V(xc)+E(xc)   XCENC  =      -303.87205541
  PAW double counting   =      1904.69541230    -1555.66990822
  entropy T*S    EENTRO =        -0.00000000
  eigenvalues    EBANDS =         9.70662676
  atomic energy  EATOM  =       971.44149227
  ---------------------------------------------------
  free energy    TOTEN  =       -10.48860958 eV

  energy without entropy =      -10.48860958  energy(sigma->0) =      -10.48860958


--------------------------------------------------------------------------------------------------------


  average scaling for gradient   1.3844


 average (electrostatic) potential at core
  the test charge radii are     1.4024  1.1897
  (the norm of the test charge is              1.0000)
       1 -61.7972       2 -61.7972       3 -88.6609       4 -88.8975       5 -88.8975



 E-fermi :   5.3891     XC(G=0):  -9.1478     alpha+bet :-10.2916


 k-point     1 :       0.8227    0.3386    0.3386
  band No.  band energies     occupation 
      1      -5.9864      1.00000
      2      -5.9864      1.00000
      3      -5.8895      1.00000
      4      -5.8895      1.00000
      5      -5.4488      1.00000
      6      -5.4488      1.00000
      7      -4.8064      1.00000
      8      -4.8064      1.00000
      9      -4.2162      1.00000
     10      -4.2162      1.00000
     11       0.5674      1.00000
     12       0.5674      1.00000
     13       1.3516      1.00000
     14       1.3516      1.00000
     15       1.5808      1.00000
     16       1.5808      1.00000
     17       2.3720      1.00000
     18       2.3720      1.00000
     19       2.6037      1.00000
     20       2.6037      1.00000
     21       3.2858      1.00000
     22       3.2858      1.00000
     23       3.7690      1.00000
     24       3.7690      1.00000
     25       4.4147      1.00000
     26       4.4147      1.00000
     27       4.5254      1.00000
     28       4.5254      1.00000
     29       6.3371      0.00000
     30       6.3371      0.00000
     31       6.9655      0.00000
     32       6.9655      0.00000
     33       7.4320      0.00000
     34       7.4320      0.00000
     35       7.8016      0.00000
     36       7.8016      0.00000
     37       8.6017      0.00000
     38       8.6017      0.00000
     39       9.1291      0.00000
     40       9.1292      0.00000
     41      10.3507      0.00000
     42      10.3507      0.00000
     43      10.7124      0.00000
     44      10.7124      0.00000
     45      12.3641      0.00000
     46      12.3642      0.00000
     47      13.7271      0.00000
     48      13.7271      0.00000
     49      14.0343      0.00000
     50      14.0343      0.00000
     51      14.3176      0.00000
     52      14.3177      0.00000
     53      14.4149      0.00000
     54      14.4149      0.00000
     55      14.7654      0.00000
     56      14.7655      0.00000
     57      14.9245      0.00000
     58      14.9246      0.00000
     59      15.4571      0.00000
     60      15.4571      0.00000
     61      15.7881      0.00000
     62      15.7881      0.00000
     63      15.9097      0.00000
     64      15.9097      0.00000
     65      16.0894      0.00000
     66      16.0894      0.00000
     67      16.2704      0.00000
     68      16.2704      0.00000
     69      16.4290      0.00000
     70      16.4290      0.00000
     71      16.9927      0.00000
     72      16.9927      0.00000
     73      17.2875      0.00000
     74      17.2875      0.00000
     75      17.5774      0.00000
     76      17.5774      0.00000
     77      17.6874      0.00000
     78      17.6874      0.00000
     79      18.3208      0.00000
     80      18.3209      0.00000
     81      18.4629      0.00000
     82      18.4636      0.00000
     83      18.9391      0.00000
     84      18.9487      0.00000
     85      19.1536      0.00000
     86      19.1770      0.00000
     87      19.2396      0.00000
     88      19.2702      0.00000

 k-point     2 :       0.8021    0.3302    0.3302
  band No.  band energies     occupation 
      1      -6.0251      1.00000
      2      -6.0251      1.00000
      3      -5.8843      1.00000
      4      -5.8843      1.00000
      5      -5.4613      1.00000
      6      -5.4613      1.00000
      7      -4.7441      1.00000
      8      -4.7441      1.00000
      9      -4.2345      1.00000
     10      -4.2345      1.00000
     11       0.5903      1.00000
     12       0.5903      1.00000
     13       1.3287      1.00000
     14       1.3287      1.00000
     15       1.6069      1.00000
     16       1.6069      1.00000
     17       2.3864      1.00000
     18       2.3864      1.00000
     19       2.5736      1.00000
     20       2.5736      1.00000
     21       3.2639      1.00000
     22       3.2639      1.00000
     23       3.7932      1.00000
     24       3.7932      1.00000
     25       4.4617      1.00000
     26       4.4617      1.00000
     27       4.5563      1.00000
     28       4.5563      1.00000
     29       6.2977      0.00000
     30       6.2977      0.00000
     31       6.9364      0.00000
     32       6.9364      0.00000
     33       7.3986      0.00000
     34       7.3986      0.00000
     35       7.8188      0.00000
     36       7.8188      0.00000
     37       8.6196      0.00000
     38       8.6197      0.00000
     39       9.1579      0.00000
     40       9.1579      0.00000
     41      10.3523      0.00000
     42      10.3523      0.00000
     43      10.6531      0.00000
     44      10.6532      0.00000
     45      12.5182      0.00000
     46      12.5182      0.00000
     47      13.5869      0.00000
     48      13.5869      0.00000
     49      14.0227      0.00000
     50      14.0227      0.00000
     51      14.2357      0.00000
     52      14.2357      0.00000
     53      14.3141      0.00000
     54      14.3141      0.00000
     55      14.6491      0.00000
     56      14.6492      0.00000
     57      15.0524      0.00000
     58      15.0525      0.00000
     59      15.3955      0.00000
     60      15.3955      0.00000
     61      15.7429      0.00000
     62      15.7429      0.00000
     63      15.9782      0.00000
     64      15.9782      0.00000
     65      16.1659      0.00000
     66      16.1659      0.00000
     67      16.3863      0.00000
     68      16.3864      0.00000
     69      16.5774      0.00000
     70      16.5774      0.00000
     71      16.8816      0.00000
     72      16.8816      0.00000
     73      17.1727      0.00000
     74      17.1728      0.00000
     75      17.4559      0.00000
     76      17.4560      0.00000
     77      17.7196      0.00000
     78      17.7196      0.00000
     79      18.4228      0.00000
     80      18.4233      0.00000
     81      18.5591      0.00000
     82      18.5605      0.00000
     83      18.8561      0.00000
     84      18.8618      0.00000
     85      19.0213      0.00000
     86      19.0407      0.00000
     87      19.2732      0.00000
     88      19.3366      0.00000

 k-point     3 :       0.7816    0.3217    0.3217
  band No.  band energies     occupation 
      1      -6.0671      1.00000
      2      -6.0671      1.00000
      3      -5.9039      1.00000
      4      -5.9039      1.00000
      5      -5.4520      1.00000
      6      -5.4520      1.00000
      7      -4.6781      1.00000
      8      -4.6781      1.00000
      9      -4.2507      1.00000
     10      -4.2507      1.00000
     11       0.6174      1.00000
     12       0.6175      1.00000
     13       1.3084      1.00000
     14       1.3084      1.00000
     15       1.6391      1.00000
     16       1.6391      1.00000
     17       2.4036      1.00000
     18       2.4036      1.00000
     19       2.5456      1.00000
     20       2.5456      1.00000
     21       3.2409      1.00000
     22       3.2409      1.00000
     23       3.8234      1.00000
     24       3.8234      1.00000
     25       4.5089      1.00000
     26       4.5089      1.00000
     27       4.5890      1.00000
     28       4.5890      1.00000
     29       6.2572      0.00000
     30       6.2572      0.00000
     31       6.9096      0.00000
     32       6.9096      0.00000
     33       7.3637      0.00000
     34       7.3637      0.00000
     35       7.8360      0.00000
     36       7.8360      0.00000
     37       8.6435      0.00000
     38       8.6435      0.00000
     39       9.1799      0.00000
     40       9.1800      0.00000
[...]
  0.000   0.000   0.000   0.000   9.924   0.000   0.000   0.000  -0.000  -0.519   8.427   0.000   0.000   0.000   0.000  -0.432
  0.006   0.000   0.007   0.000   0.000   0.000   9.924   0.000  -0.000   0.000   0.000   0.000   8.427   0.000  -0.000   0.000
  0.048   0.000   0.055   0.000  -0.000   0.519  -0.000   0.000   9.923   0.000   0.000   0.432  -0.000   0.000   8.426   0.000
  0.000   0.000   0.000   0.000   8.427   0.000   0.000   0.000   0.000  -0.432   7.229   0.000   0.000   0.000   0.000  -0.359
  0.005   0.000   0.006   0.000   0.000   0.000   8.427   0.000  -0.000   0.000   0.000   0.000   7.229   0.000  -0.000   0.000
  0.041   0.000   0.046   0.000   0.000   0.432  -0.000   0.000   8.426   0.000   0.000   0.359  -0.000   0.000   7.228   0.000
 -0.000   0.000  -0.000   0.000   0.009   0.000   0.000   0.000  -0.000   0.000   0.008   0.000   0.000   0.000  -0.000   0.000
  0.000   0.000   0.000   0.000   0.000   0.000   0.000   0.000   0.000   0.000  -0.000   0.000   0.000   0.000   0.000   0.000
  0.000   0.000   0.000   0.000   0.000   0.000   0.002   0.000  -0.006   0.000   0.000   0.000   0.002   0.000  -0.005   0.000
 -0.000   0.000  -0.000   0.000   0.000   0.000   0.009   0.000   0.001   0.000   0.000   0.000   0.008   0.000   0.001   0.000
 -0.001   0.000  -0.001   0.000   0.000   0.000   0.001   0.000   0.010   0.000   0.000   0.000   0.001   0.000   0.009   0.000
 total augmentation occupancy for first ion, spin component:           1
  2.000   0.000   0.000   0.000   0.000   0.000   0.000   0.000   0.000   0.000   0.000   0.000   0.000
  0.000   0.000   0.000   0.000   0.000   0.000   0.000   0.000   0.000   0.000   0.000   0.000   0.000
  0.000   0.000   1.000   0.000   0.000   0.000   0.000   0.000   0.000   0.000   0.000   0.000   0.000
  0.000   0.000   0.000   1.000   0.000   0.000   0.000   0.000   0.000   0.000   0.000   0.000   0.000
  0.000   0.000   0.000   0.000   1.000   0.000   0.000   0.000   0.000   0.000   0.000   0.000   0.000
  0.000   0.000   0.000   0.000   0.000   0.000   0.000   0.000   0.000   0.000   0.000   0.000   0.000
  0.000   0.000   0.000   0.000   0.000   0.000   0.000   0.000   0.000   0.000   0.000   0.000   0.000
  0.000   0.000   0.000   0.000   0.000   0.000   0.000   0.000   0.000   0.000   0.000   0.000   0.000
  0.000   0.000   0.000   0.000   0.000   0.000   0.000   0.000   0.000   0.000   0.000   0.000   0.000
  0.000   0.000   0.000   0.000   0.000   0.000   0.000   0.000   0.000   0.000   0.000   0.000   0.000
  0.000   0.000   0.000   0.000   0.000   0.000   0.000   0.000   0.000   0.000   0.000   0.000   0.000
  0.000   0.000   0.000   0.000   0.000   0.000   0.000   0.000   0.000   0.000   0.000   0.000   0.000
  0.000   0.000   0.000   0.000   0.000   0.000   0.000   0.000   0.000   0.000   0.000   0.000   0.000
 total augmentation occupancy for first ion, spin component:           2
  0.400   0.000   0.000   0.000   0.000   0.000   0.000   0.000   0.000   0.000   0.000   0.000   0.000
  0.000   0.000   0.000   0.000   0.000   0.000   0.000   0.000   0.000   0.000   0.000   0.000   0.000
  0.000   0.000   0.200   0.000   0.000   0.000   0.000   0.000   0.000   0.000   0.000   0.000   0.000
  0.000   0.000   0.000   0.200   0.000   0.000   0.000   0.000   0.000   0.000   0.000   0.000   0.000
  0.000   0.000   0.000   0.000   0.200   0.000   0.000   0.000   0.000   0.000   0.000   0.000   0.000
  0.000   0.000   0.000   0.000   0.000   0.000   0.000   0.000   0.000   0.000   0.000   0.000   0.000
  0.000   0.000   0.000   0.000   0.000   0.000   0.000   0.000   0.000   0.000   0.000   0.000   0.000
  0.000   0.000   0.000   0.000   0.000   0.000   0.000   0.000   0.000   0.000   0.000   0.000   0.000
  0.000   0.000   0.000   0.000   0.000   0.000   0.000   0.000   0.000   0.000   0.000   0.000   0.000
  0.000   0.000   0.000   0.000   0.000   0.000   0.000   0.000   0.000   0.000   0.000   0.000   0.000
  0.000   0.000   0.000   0.000   0.000   0.000   0.000   0.000   0.000   0.000   0.000   0.000   0.000
  0.000   0.000   0.000   0.000   0.000   0.000   0.000   0.000   0.000   0.000   0.000   0.000   0.000
  0.000   0.000   0.000   0.000   0.000   0.000   0.000   0.000   0.000   0.000   0.000   0.000   0.000
 total augmentation occupancy for first ion, spin component:           3
  0.400   0.000   0.000   0.000   0.000   0.000   0.000   0.000   0.000   0.000   0.000   0.000   0.000
  0.000   0.000   0.000   0.000   0.000   0.000   0.000   0.000   0.000   0.000   0.000   0.000   0.000
  0.000   0.000   0.200   0.000   0.000   0.000   0.000   0.000   0.000   0.000   0.000   0.000   0.000
  0.000   0.000   0.000   0.200   0.000   0.000   0.000   0.000   0.000   0.000   0.000   0.000   0.000
  0.000   0.000   0.000   0.000   0.200   0.000   0.000   0.000   0.000   0.000   0.000   0.000   0.000
  0.000   0.000   0.000   0.000   0.000   0.000   0.000   0.000   0.000   0.000   0.000   0.000   0.000
  0.000   0.000   0.000   0.000   0.000   0.000   0.000   0.000   0.000   0.000   0.000   0.000   0.000
  0.000   0.000   0.000   0.000   0.000   0.000   0.000   0.000   0.000   0.000   0.000   0.000   0.000
  0.000   0.000   0.000   0.000   0.000   0.000   0.000   0.000   0.000   0.000   0.000   0.000   0.000
  0.000   0.000   0.000   0.000   0.000   0.000   0.000   0.000   0.000   0.000   0.000   0.000   0.000
  0.000   0.000   0.000   0.000   0.000   0.000   0.000   0.000   0.000   0.000   0.000   0.000   0.000
  0.000   0.000   0.000   0.000   0.000   0.000   0.000   0.000   0.000   0.000   0.000   0.000   0.000
  0.000   0.000   0.000   0.000   0.000   0.000   0.000   0.000   0.000   0.000   0.000   0.000   0.000
 total augmentation occupancy for first ion, spin component:           4
  0.400   0.000   0.000   0.000   0.000   0.000   0.000   0.000   0.000   0.000   0.000   0.000   0.000
  0.000   0.000   0.000   0.000   0.000   0.000   0.000   0.000   0.000   0.000   0.000   0.000   0.000
  0.000   0.000   0.200   0.000   0.000   0.000   0.000   0.000   0.000   0.000   0.000   0.000   0.000
  0.000   0.000   0.000   0.200   0.000   0.000   0.000   0.000   0.000   0.000   0.000   0.000   0.000
  0.000   0.000   0.000   0.000   0.200   0.000   0.000   0.000   0.000   0.000   0.000   0.000   0.000
  0.000   0.000   0.000   0.000   0.000   0.000   0.000   0.000   0.000   0.000   0.000   0.000   0.000
  0.000   0.000   0.000   0.000   0.000   0.000   0.000   0.000   0.000   0.000   0.000   0.000   0.000
  0.000   0.000   0.000   0.000   0.000   0.000   0.000   0.000   0.000   0.000   0.000   0.000   0.000
  0.000   0.000   0.000   0.000   0.000   0.000   0.000   0.000   0.000   0.000   0.000   0.000   0.000
  0.000   0.000   0.000   0.000   0.000   0.000   0.000   0.000   0.000   0.000   0.000   0.000   0.000
  0.000   0.000   0.000   0.000   0.000   0.000   0.000   0.000   0.000   0.000   0.000   0.000   0.000
  0.000   0.000   0.000   0.000   0.000   0.000   0.000   0.000   0.000   0.000   0.000   0.000   0.000
  0.000   0.000   0.000   0.000   0.000   0.000   0.000   0.000   0.000   0.000   0.000   0.000   0.000


------------------------ aborting loop because EDIFF is reached ----------------------------------------


    CHARGE:  cpu time   58.2051: real time   58.2085
    FORLOC:  cpu time    0.0778: real time    0.0781
    FORNL :  cpu time   66.4198: real time   66.4237
    STRESS:  cpu time  156.7262: real time  156.7358
    FORCOR:  cpu time    3.8039: real time    3.8041
    FORHAR:  cpu time    0.3422: real time    0.3422
    OFIELD:  cpu time    0.0283: real time    0.0283

 ---------------------------------------------------------------------------------------------

         DFTD3 V3.0 Rev 1        
 IVDW         = 11
 DF pbe       
 parameters
 VDW_S6       =    1.0000
 VDW_S8       =    0.7220
 VDW_SR       =    1.2170
 rs18     =    1.0000
 alpha6   =   14.0000
 alpha8   =   16.0000
 k1-k3    =   16.0000    1.3333   -4.0000
 VDW_RADIUS   =   50.2022 A
 VDW_CNRADIUS =   21.1671 A
 Edisp (eV)   -1.43591

 E6    (eV) :    -0.5326
 E8    (eV) :    -0.9033
 % E8        : 62.91
    FORVDW:  cpu time    0.0682: real time    0.0895

  FORCE on cell =-STRESS in cart. coord.  units (eV):
  Direction    XX          YY          ZZ          XY          YZ          ZX
  --------------------------------------------------------------------------------------
  Alpha Z     5.98036     5.98036     5.98036
  Ewald    -328.48373  -326.84886  -326.87481     0.00000     0.00000    -0.20596
  Hartree    20.66446    23.46766    23.94213     0.21827     0.29036    -0.82172
  E(xc)    -115.93129  -116.69946  -116.67257     0.05867     0.02091     0.05202
  Local    -162.14844  -177.30993  -177.96831     0.25470    -0.11418     2.66422
  n-local   490.69841   500.21032   499.75021    -0.65411    -0.44608    -0.88813
  augment  -134.74080  -137.97608  -137.72659     0.11716     0.12810     0.30087
  Kinetic   230.63235   260.45934   253.41091     0.85977    -3.14204    -3.19087
  Fock        0.00000     0.00000     0.00000     0.00000     0.00000     0.00000
  vdW        -1.54117    -1.18576    -1.19140    -0.00000    -0.00000    -0.04477
  -------------------------------------------------------------------------------------
  Total       5.13016    30.09759    22.64994     0.85447    -3.26292    -2.13436
  in kB      47.47078   278.50132   209.58607     7.90666   -30.19269   -19.74982
  external pressure =      178.52 kB  Pullay stress =        0.00 kB


 VOLUME and BASIS-vectors are now :
 -----------------------------------------------------------------------------
  energy-cutoff  :      600.00
  volume of cell :      173.15
      direct lattice vectors                 reciprocal lattice vectors
    10.243503987 -2.217673792  0.000000000     0.048811422 -0.225461473 -0.125049817
    10.243503987  2.217673792  0.000000000     0.048811422  0.225461473 -0.125049817
     9.763387315  0.000000000  3.810999753    -0.000000000  0.000000000  0.262398338

  length of vectors
    10.480813469 10.480813469 10.480813469     0.262398338  0.262398338  0.262398338


 FORCES acting on ions
    electron-ion (+dipol)            ewald-force                    non-local-force                 convergence-correction
 -----------------------------------------------------------------------------------------------
   -.316E+01 -.129E+00 -.164E+00   0.436E+01 0.381E-14 0.550E+00   -.593E+00 0.732E-01 -.305E+00   -.484E+00 0.262E-01 -.823E-01
   0.316E+01 0.129E+00 0.164E+00   -.436E+01 -.431E-14 -.550E+00   0.593E+00 -.732E-01 0.305E+00   0.484E+00 -.262E-01 0.823E-01
   -.128E-05 -.115E-05 0.420E-05   0.711E-14 0.217E-14 0.107E-13   0.109E-05 0.114E-05 -.371E-05   0.174E-06 0.529E-07 -.363E-06
   0.287E+02 -.338E+00 0.411E+01   -.266E+02 -.163E-14 -.335E+01   -.879E+00 0.166E+00 -.591E+00   -.107E+01 0.635E-01 -.166E+00
   -.287E+02 0.338E+00 -.411E+01   0.266E+02 0.684E-15 0.335E+01   0.879E+00 -.166E+00 0.591E+00   0.107E+01 -.635E-01 0.166E+00
 -----------------------------------------------------------------------------------------------
   -.278E-05 0.430E-06 0.816E-05   -.249E-13 0.731E-15 0.311E-14   0.275E-05 -.691E-06 -.799E-05   0.270E-06 -.263E-08 -.351E-06


 POSITION                                       TOTAL-FORCE (eV/Angst)
 -----------------------------------------------------------------------------------
     12.09099      0.00000      1.52325         0.146397     -0.029331      0.001054
     18.15940      0.00000      2.28775        -0.146397      0.029331     -0.001054
      0.00000      0.00000      0.00000        -0.000000      0.000000      0.000000
      6.37424      0.00000      0.80304         0.177339     -0.108898      0.008887
     23.87615      0.00000      3.00796        -0.177339      0.108898     -0.008887
 -----------------------------------------------------------------------------------
    total drift:                                0.000000     -0.000000     -0.000000


--------------------------------------------------------------------------------------------------------



  FREE ENERGIE OF THE ION-ELECTRON SYSTEM (eV)
  ---------------------------------------------------
  free  energy   TOTEN  =       -11.92452308 eV

  energy  without entropy=      -11.92452308  energy(sigma->0) =      -11.92452308



--------------------------------------------------------------------------------------------------------


    POTLOK:  cpu time   10.4907: real time   10.4914


--------------------------------------------------------------------------------------------------------


     LOOP+:  cpu time 9419.7545: real time 9422.0550
    4ORBIT:  cpu time    0.0000: real time    0.0000

 Spin-Orbit-Coupling matrix elements

 Ion:    1  E_soc:     -1.2018340
 l=   1
     0.0000000    -0.1899977    -0.2012855
    -0.1899977     0.0000000    -0.2043780
    -0.2012855    -0.2043780     0.0000000
 l=   2
     0.0000000    -0.0003764     0.0000000    -0.0002806    -0.0011485
    -0.0003764     0.0000000    -0.0013415    -0.0004433    -0.0005817
     0.0000000    -0.0013415     0.0000000    -0.0008553     0.0000000
    -0.0002806    -0.0004433    -0.0008553     0.0000000    -0.0002286
    -0.0011485    -0.0005817     0.0000000    -0.0002286     0.0000000
 l=   3
     0.0000000     0.0000000     0.0000000     0.0000000     0.0000000     0.0000000     0.0000000
     0.0000000     0.0000000     0.0000000     0.0000000     0.0000000     0.0000000     0.0000000
     0.0000000     0.0000000     0.0000000     0.0000000     0.0000000     0.0000000     0.0000000
     0.0000000     0.0000000     0.0000000     0.0000000     0.0000000     0.0000000     0.0000000
     0.0000000     0.0000000     0.0000000     0.0000000     0.0000000     0.0000000     0.0000000
     0.0000000     0.0000000     0.0000000     0.0000000     0.0000000     0.0000000     0.0000000
     0.0000000     0.0000000     0.0000000     0.0000000     0.0000000     0.0000000     0.0000000

 Ion:    2  E_soc:     -1.2018340
 l=   1
     0.0000000    -0.1899977    -0.2012856
    -0.1899977     0.0000000    -0.2043779
    -0.2012856    -0.2043779     0.0000000
 l=   2
     0.0000000    -0.0003764     0.0000000    -0.0002806    -0.0011485
    -0.0003764     0.0000000    -0.0013415    -0.0004433    -0.0005817
     0.0000000    -0.0013415     0.0000000    -0.0008553     0.0000000
    -0.0002806    -0.0004433    -0.0008553     0.0000000    -0.0002286
    -0.0011485    -0.0005817     0.0000000    -0.0002286     0.0000000
 l=   3
     0.0000000     0.0000000     0.0000000     0.0000000     0.0000000     0.0000000     0.0000000
     0.0000000     0.0000000     0.0000000     0.0000000     0.0000000     0.0000000     0.0000000
     0.0000000     0.0000000     0.0000000     0.0000000     0.0000000     0.0000000     0.0000000
     0.0000000     0.0000000     0.0000000     0.0000000     0.0000000     0.0000000     0.0000000
     0.0000000     0.0000000     0.0000000     0.0000000     0.0000000     0.0000000     0.0000000
     0.0000000     0.0000000     0.0000000     0.0000000     0.0000000     0.0000000     0.0000000
     0.0000000     0.0000000     0.0000000     0.0000000     0.0000000     0.0000000     0.0000000

 Ion:    3  E_soc:     -0.1464358
 l=   1
     0.0000000    -0.0244660    -0.0226228
    -0.0244660     0.0000000    -0.0264466
    -0.0226228    -0.0264466     0.0000000
 l=   2
     0.0000000    -0.0000030     0.0000000    -0.0000717     0.0001065
    -0.0000030     0.0000000     0.0000628     0.0000202     0.0000522
     0.0000000     0.0000628     0.0000000     0.0000627     0.0000000
    -0.0000717     0.0000202     0.0000627     0.0000000     0.0000878
     0.0001065     0.0000522     0.0000000     0.0000878     0.0000000
 l=   3
     0.0000000     0.0000000     0.0000000     0.0000000     0.0000000     0.0000000     0.0000000
     0.0000000     0.0000000     0.0000000     0.0000000     0.0000000     0.0000000     0.0000000
     0.0000000     0.0000000     0.0000000     0.0000000     0.0000000     0.0000000     0.0000000
     0.0000000     0.0000000     0.0000000     0.0000000     0.0000000     0.0000000     0.0000000
     0.0000000     0.0000000     0.0000000     0.0000000     0.0000000     0.0000000     0.0000000
     0.0000000     0.0000000     0.0000000     0.0000000     0.0000000     0.0000000     0.0000000
     0.0000000     0.0000000     0.0000000     0.0000000     0.0000000     0.0000000     0.0000000

 Ion:    4  E_soc:     -0.1996479
 l=   1
     0.0000000    -0.0285970    -0.0334226
    -0.0285970     0.0000000    -0.0379256
    -0.0334226    -0.0379256     0.0000000
 l=   2
     0.0000000    -0.0000082     0.0000000    -0.0000047     0.0000196
    -0.0000082     0.0000000     0.0000439     0.0000072     0.0000290
     0.0000000     0.0000439     0.0000000    -0.0000019     0.0000000
    -0.0000047     0.0000072    -0.0000019     0.0000000     0.0000366
     0.0000196     0.0000290     0.0000000     0.0000366     0.0000000
 l=   3
     0.0000000     0.0000000     0.0000000     0.0000000     0.0000000     0.0000000     0.0000000
     0.0000000     0.0000000     0.0000000     0.0000000     0.0000000     0.0000000     0.0000000
     0.0000000     0.0000000     0.0000000     0.0000000     0.0000000     0.0000000     0.0000000
     0.0000000     0.0000000     0.0000000     0.0000000     0.0000000     0.0000000     0.0000000
     0.0000000     0.0000000     0.0000000     0.0000000     0.0000000     0.0000000     0.0000000
     0.0000000     0.0000000     0.0000000     0.0000000     0.0000000     0.0000000     0.0000000
     0.0000000     0.0000000     0.0000000     0.0000000     0.0000000     0.0000000     0.0000000

 Ion:    5  E_soc:     -0.1996479
 l=   1
     0.0000000    -0.0285970    -0.0334227
    -0.0285970     0.0000000    -0.0379256
    -0.0334227    -0.0379256     0.0000000
 l=   2
     0.0000000    -0.0000082     0.0000000    -0.0000047     0.0000196
    -0.0000082     0.0000000     0.0000439     0.0000072     0.0000290
     0.0000000     0.0000439     0.0000000    -0.0000019     0.0000000
    -0.0000047     0.0000072    -0.0000019     0.0000000     0.0000366
     0.0000196     0.0000290     0.0000000     0.0000366     0.0000000
 l=   3
     0.0000000     0.0000000     0.0000000     0.0000000     0.0000000     0.0000000     0.0000000
     0.0000000     0.0000000     0.0000000     0.0000000     0.0000000     0.0000000     0.0000000
     0.0000000     0.0000000     0.0000000     0.0000000     0.0000000     0.0000000     0.0000000
     0.0000000     0.0000000     0.0000000     0.0000000     0.0000000     0.0000000     0.0000000
     0.0000000     0.0000000     0.0000000     0.0000000     0.0000000     0.0000000     0.0000000
     0.0000000     0.0000000     0.0000000     0.0000000     0.0000000     0.0000000     0.0000000
     0.0000000     0.0000000     0.0000000     0.0000000     0.0000000     0.0000000     0.0000000

 total amount of memory used by VASP MPI-rank0  1767652. kBytes
=======================================================================

   base      :      30000. kBytes
   nonl-proj :     121977. kBytes
   fftplans  :     182239. kBytes
   grid      :     180182. kBytes
   one-center:         97. kBytes
   wavefun   :    1253157. kBytes

  
  
 General timing and accounting informations for this job:
 ========================================================
  
                  Total CPU time used (sec):     9472.111
                            User time (sec):     9364.080
                          System time (sec):      108.032
                         Elapsed time (sec):     9474.691
  
                   Maximum memory used (kb):     2133692.
                   Average memory used (kb):           0.
  
                          Minor page faults:     15787150
                          Major page faults:            0
                 Voluntary context switches:         5096
