<?xml version="1.0" encoding="ISO-8859-1"?>
<modeling>
 <generator>
  <i name="program" type="string">vasp </i>
  <i name="version" type="string">5.4.4.18Apr17-6-g9f103f2a35  </i>
  <i name="subversion" type="string">(build Mar 20 2018 18:07:30) complex            parallel </i>
  <i name="platform" type="string">LinuxGNU </i>
  <i name="date" type="string">2020 07 12 </i>
  <i name="time" type="string">11:04:51 </i>
 </generator>
 <incar>
  <i type="string" name="SYSTEM"> BiTe</i>
  <i type="int" name="ISTART">     1</i>
  <i type="string" name="PREC">accurate</i>
  <i type="string" name="ALGO"> A</i>
  <i type="logical" name="ADDGRID"> T  </i>
  <i type="logical" name="LSORBIT"> T  </i>
  <i type="int" name="ISPIN">     1</i>
  <i type="int" name="ICHARG">    11</i>
  <i type="int" name="IBRION">    -1</i>
  <i name="EDIFF">      0.00000010</i>
  <i name="EDIFFG">     -0.00100000</i>
  <i type="int" name="NSW">     0</i>
  <i type="int" name="ISYM">    -1</i>
  <i name="ENCUT">    600.00000000</i>
  <i type="int" name="NBANDS">    88</i>
  <i type="logical" name="LREAL"> F  </i>
  <i type="logical" name="LPLANE"> T  </i>
  <i type="int" name="ISMEAR">     0</i>
  <i name="SIGMA">      0.01000000</i>
  <i type="int" name="LMAXMIX">     4</i>
  <i type="logical" name="LWAVE"> F  </i>
  <i type="logical" name="LCHARG"> F  </i>
  <i type="logical" name="GGA_COMPAT"> F  </i>
  <v type="int" name="KPOINT_BSE">    -1     0     0     0</v>
 </incar>
 <structure name="primitive_cell" >
  <crystal>
   <varray name="basis" >
    <v>      10.24350399      -2.21767379       0.00000000 </v>
    <v>      10.24350399       2.21767379       0.00000000 </v>
    <v>       9.76338731       0.00000000       3.81099975 </v>
   </varray>
   <i name="volume">    173.14705979 </i>
   <varray name="rec_basis" >
    <v>       0.04881142      -0.22546147      -0.12504982 </v>
    <v>       0.04881142       0.22546147      -0.12504982 </v>
    <v>      -0.00000000       0.00000000       0.26239834 </v>
   </varray>
  </crystal>
  <varray name="positions" >
   <v>       0.39969707       0.39969707       0.39969707 </v>
   <v>      -0.21071601      -0.21071601      -0.21071601 </v>
   <v>       0.00000000       0.00000000       0.00000000 </v>
   <v>      -0.39969707      -0.39969707      -0.39969707 </v>
   <v>       0.21071601       0.21071601       0.21071601 </v>
  </varray>
 </structure>
 <varray name="primitive_index" >
  <v type="int" >        1 </v>
  <v type="int" >        5 </v>
  <v type="int" >        3 </v>
  <v type="int" >        2 </v>
  <v type="int" >        4 </v>
 </varray>
 <kpoints>
  <varray name="kpointlist" >
   <v>       0.82271700       0.33864100       0.33864100 </v>
   <v>       0.80214900       0.33017500       0.33017500 </v>
   <v>       0.78158200       0.32170900       0.32170900 </v>
   <v>       0.76101400       0.31324300       0.31324300 </v>
   <v>       0.74044600       0.30477700       0.30477700 </v>
   <v>       0.71987800       0.29631100       0.29631100 </v>
   <v>       0.69931000       0.28784500       0.28784500 </v>
   <v>       0.67874200       0.27937900       0.27937900 </v>
   <v>       0.65817400       0.27091300       0.27091300 </v>
   <v>       0.63760600       0.26244700       0.26244700 </v>
   <v>       0.61703800       0.25398100       0.25398100 </v>
   <v>       0.59647000       0.24551500       0.24551500 </v>
   <v>       0.57590200       0.23704900       0.23704900 </v>
   <v>       0.55533400       0.22858300       0.22858300 </v>
   <v>       0.53476600       0.22011700       0.22011700 </v>
   <v>       0.51419800       0.21165100       0.21165100 </v>
   <v>       0.49363000       0.20318500       0.20318500 </v>
   <v>       0.47306300       0.19471900       0.19471900 </v>
   <v>       0.45249500       0.18625300       0.18625300 </v>
   <v>       0.43192700       0.17778700       0.17778700 </v>
   <v>       0.41135900       0.16932100       0.16932100 </v>
   <v>       0.39079100       0.16085500       0.16085500 </v>
   <v>       0.37022300       0.15238900       0.15238900 </v>
   <v>       0.34965500       0.14392300       0.14392300 </v>
   <v>       0.32908700       0.13545700       0.13545700 </v>
   <v>       0.30851900       0.12699000       0.12699000 </v>
   <v>       0.28795100       0.11852400       0.11852400 </v>
   <v>       0.26738300       0.11005800       0.11005800 </v>
   <v>       0.24681500       0.10159200       0.10159200 </v>
   <v>       0.22624700       0.09312600       0.09312600 </v>
   <v>       0.20567900       0.08466000       0.08466000 </v>
   <v>       0.18511100       0.07619400       0.07619400 </v>
   <v>       0.16454300       0.06772800       0.06772800 </v>
   <v>       0.14397600       0.05926200       0.05926200 </v>
   <v>       0.12340800       0.05079600       0.05079600 </v>
   <v>       0.10284000       0.04233000       0.04233000 </v>
   <v>       0.08227200       0.03386400       0.03386400 </v>
   <v>       0.06170400       0.02539800       0.02539800 </v>
   <v>       0.04113600       0.01693200       0.01693200 </v>
   <v>       0.02056800       0.00846600       0.00846600 </v>
   <v>      -0.00000000       0.00000000       0.00000000 </v>
   <v>       0.01250000       0.01250000       0.01250000 </v>
   <v>       0.02500000       0.02500000       0.02500000 </v>
   <v>       0.03750000       0.03750000       0.03750000 </v>
   <v>       0.05000000       0.05000000       0.05000000 </v>
   <v>       0.06250000       0.06250000       0.06250000 </v>
   <v>       0.07500000       0.07500000       0.07500000 </v>
   <v>       0.08750000       0.08750000       0.08750000 </v>
   <v>       0.10000000       0.10000000       0.10000000 </v>
   <v>       0.11250000       0.11250000       0.11250000 </v>
   <v>       0.12500000       0.12500000       0.12500000 </v>
   <v>       0.13750000       0.13750000       0.13750000 </v>
   <v>       0.15000000       0.15000000       0.15000000 </v>
   <v>       0.16250000       0.16250000       0.16250000 </v>
   <v>       0.17500000       0.17500000       0.17500000 </v>
   <v>       0.18750000       0.18750000       0.18750000 </v>
   <v>       0.20000000       0.20000000       0.20000000 </v>
   <v>       0.21250000       0.21250000       0.21250000 </v>
   <v>       0.22500000       0.22500000       0.22500000 </v>
   <v>       0.23750000       0.23750000       0.23750000 </v>
   <v>       0.25000000       0.25000000       0.25000000 </v>
   <v>       0.26250000       0.26250000       0.26250000 </v>
   <v>       0.27500000       0.27500000       0.27500000 </v>
   <v>       0.28750000       0.28750000       0.28750000 </v>
   <v>       0.30000000       0.30000000       0.30000000 </v>
   <v>       0.31250000       0.31250000       0.31250000 </v>
   <v>       0.32500000       0.32500000       0.32500000 </v>
   <v>       0.33750000       0.33750000       0.33750000 </v>
   <v>       0.35000000       0.35000000       0.35000000 </v>
   <v>       0.36250000       0.36250000       0.36250000 </v>
   <v>       0.37500000       0.37500000       0.37500000 </v>
   <v>       0.38750000       0.38750000       0.38750000 </v>
   <v>       0.40000000       0.40000000       0.40000000 </v>
   <v>       0.41250000       0.41250000       0.41250000 </v>
   <v>       0.42500000       0.42500000       0.42500000 </v>
   <v>       0.43750000       0.43750000       0.43750000 </v>
   <v>       0.45000000       0.45000000       0.45000000 </v>
   <v>       0.46250000       0.46250000       0.46250000 </v>
   <v>       0.47500000       0.47500000       0.47500000 </v>
   <v>       0.48750000       0.48750000       0.48750000 </v>
   <v>       0.50000000       0.50000000       0.50000000 </v>
   <v>       0.50000000       0.50000000       0.48750000 </v>
   <v>       0.50000000       0.50000000       0.47500000 </v>
   <v>       0.50000000       0.50000000       0.46250000 </v>
   <v>       0.50000000       0.50000000       0.45000000 </v>
   <v>       0.50000000       0.50000000       0.43750000 </v>
   <v>       0.50000000       0.50000000       0.42500000 </v>
   <v>       0.50000000       0.50000000       0.41250000 </v>
   <v>       0.50000000       0.50000000       0.40000000 </v>
   <v>       0.50000000       0.50000000       0.38750000 </v>
   <v>       0.50000000       0.50000000       0.37500000 </v>
   <v>       0.50000000       0.50000000       0.36250000 </v>
   <v>       0.50000000       0.50000000       0.35000000 </v>
   <v>       0.50000000       0.50000000       0.33750000 </v>
   <v>       0.50000000       0.50000000       0.32500000 </v>
   <v>       0.50000000       0.50000000       0.31250000 </v>
   <v>       0.50000000       0.50000000       0.30000000 </v>
   <v>       0.50000000       0.50000000       0.28750000 </v>
   <v>       0.50000000       0.50000000       0.27500000 </v>
   <v>       0.50000000       0.50000000       0.26250000 </v>
   <v>       0.50000000       0.50000000       0.25000000 </v>
   <v>       0.50000000       0.50000000       0.23750000 </v>
   <v>       0.50000000       0.50000000       0.22500000 </v>
   <v>       0.50000000       0.50000000       0.21250000 </v>
   <v>       0.50000000       0.50000000       0.20000000 </v>
   <v>       0.50000000       0.50000000       0.18750000 </v>
   <v>       0.50000000       0.50000000       0.17500000 </v>
   <v>       0.50000000       0.50000000       0.16250000 </v>
   <v>       0.50000000       0.50000000       0.15000000 </v>
   <v>       0.50000000       0.50000000       0.13750000 </v>
   <v>       0.50000000       0.50000000       0.12500000 </v>
   <v>       0.50000000       0.50000000       0.11250000 </v>
   <v>       0.50000000       0.50000000       0.10000000 </v>
   <v>       0.50000000       0.50000000       0.08750000 </v>
   <v>       0.50000000       0.50000000       0.07500000 </v>
   <v>       0.50000000       0.50000000       0.06250000 </v>
   <v>       0.50000000       0.50000000       0.05000000 </v>
   <v>       0.50000000       0.50000000       0.03750000 </v>
   <v>       0.50000000       0.50000000       0.02500000 </v>
   <v>       0.50000000       0.50000000       0.01250000 </v>
   <v>       0.50000000       0.50000000       0.00000000 </v>
   <v>       0.48750000       0.48750000       0.00000000 </v>
   <v>       0.47500000       0.47500000       0.00000000 </v>
   <v>       0.46250000       0.46250000       0.00000000 </v>
   <v>       0.45000000       0.45000000       0.00000000 </v>
   <v>       0.43750000       0.43750000       0.00000000 </v>
   <v>       0.42500000       0.42500000       0.00000000 </v>
   <v>       0.41250000       0.41250000       0.00000000 </v>
   <v>       0.40000000       0.40000000       0.00000000 </v>
   <v>       0.38750000       0.38750000       0.00000000 </v>
   <v>       0.37500000       0.37500000       0.00000000 </v>
   <v>       0.36250000       0.36250000       0.00000000 </v>
   <v>       0.35000000       0.35000000       0.00000000 </v>
   <v>       0.33750000       0.33750000       0.00000000 </v>
   <v>       0.32500000       0.32500000       0.00000000 </v>
   <v>       0.31250000       0.31250000       0.00000000 </v>
   <v>       0.30000000       0.30000000       0.00000000 </v>
   <v>       0.28750000       0.28750000       0.00000000 </v>
   <v>       0.27500000       0.27500000       0.00000000 </v>
   <v>       0.26250000       0.26250000       0.00000000 </v>
   <v>       0.25000000       0.25000000       0.00000000 </v>
   <v>       0.23750000       0.23750000       0.00000000 </v>
   <v>       0.22500000       0.22500000       0.00000000 </v>
   <v>       0.21250000       0.21250000       0.00000000 </v>
   <v>       0.20000000       0.20000000       0.00000000 </v>
   <v>       0.18750000       0.18750000       0.00000000 </v>
   <v>       0.17500000       0.17500000       0.00000000 </v>
   <v>       0.16250000       0.16250000       0.00000000 </v>
   <v>       0.15000000       0.15000000       0.00000000 </v>
   <v>       0.13750000       0.13750000       0.00000000 </v>
   <v>       0.12500000       0.12500000       0.00000000 </v>
   <v>       0.11250000       0.11250000       0.00000000 </v>
   <v>       0.10000000       0.10000000       0.00000000 </v>
   <v>       0.08750000       0.08750000       0.00000000 </v>
   <v>       0.07500000       0.07500000       0.00000000 </v>
   <v>       0.06250000       0.06250000       0.00000000 </v>
   <v>       0.05000000       0.05000000       0.00000000 </v>
   <v>       0.03750000       0.03750000       0.00000000 </v>
   <v>       0.02500000       0.02500000       0.00000000 </v>
   <v>       0.01250000       0.01250000       0.00000000 </v>
   <v>      -0.00000000       0.00000000       0.00000000 </v>
   <v>       0.01653400       0.01048300       0.01048300 </v>
   <v>       0.03306800       0.02096600       0.02096600 </v>
   <v>       0.04960200       0.03144900       0.03144900 </v>
   <v>       0.06613600       0.04193200       0.04193200 </v>
   <v>       0.08267000       0.05241500       0.05241500 </v>
   <v>       0.09920400       0.06289800       0.06289800 </v>
   <v>       0.11573800       0.07338100       0.07338100 </v>
   <v>       0.13227200       0.08386400       0.08386400 </v>
   <v>       0.14880600       0.09434700       0.09434700 </v>
   <v>       0.16534000       0.10483000       0.10483000 </v>
   <v>       0.18187400       0.11531300       0.11531300 </v>
   <v>       0.19840800       0.12579600       0.12579600 </v>
   <v>       0.21494200       0.13627900       0.13627900 </v>
   <v>       0.23147600       0.14676200       0.14676200 </v>
   <v>       0.24801000       0.15724500       0.15724500 </v>
   <v>       0.26454300       0.16772800       0.16772800 </v>
   <v>       0.28107700       0.17821100       0.17821100 </v>
   <v>       0.29761100       0.18869400       0.18869400 </v>
   <v>       0.31414500       0.19917700       0.19917700 </v>
   <v>       0.33067900       0.20966000       0.20966000 </v>
   <v>       0.34721300       0.22014300       0.22014300 </v>
   <v>       0.36374700       0.23062600       0.23062600 </v>
   <v>       0.38028100       0.24110900       0.24110900 </v>
   <v>       0.39681500       0.25159200       0.25159200 </v>
   <v>       0.41334900       0.26207500       0.26207500 </v>
   <v>       0.42988300       0.27255800       0.27255800 </v>
   <v>       0.44641700       0.28304100       0.28304100 </v>
   <v>       0.46295100       0.29352400       0.29352400 </v>
   <v>       0.47948500       0.30400700       0.30400700 </v>
   <v>       0.49601900       0.31449000       0.31449000 </v>
   <v>       0.51255300       0.32497400       0.32497400 </v>
   <v>       0.52908700       0.33545700       0.33545700 </v>
   <v>       0.54562100       0.34594000       0.34594000 </v>
   <v>       0.56215500       0.35642300       0.35642300 </v>
   <v>       0.57868900       0.36690600       0.36690600 </v>
   <v>       0.59522300       0.37738900       0.37738900 </v>
   <v>       0.61175700       0.38787200       0.38787200 </v>
   <v>       0.62829100       0.39835500       0.39835500 </v>
   <v>       0.64482500       0.40883800       0.40883800 </v>
   <v>       0.66135900       0.41932100       0.41932100 </v>
  </varray>
  <varray name="weights" >
   <v>       0.00497512 </v>
   <v>       0.00497512 </v>
   <v>       0.00497512 </v>
   <v>       0.00497512 </v>
   <v>       0.00497512 </v>
   <v>       0.00497512 </v>
   <v>       0.00497512 </v>
   <v>       0.00497512 </v>
   <v>       0.00497512 </v>
   <v>       0.00497512 </v>
   <v>       0.00497512 </v>
   <v>       0.00497512 </v>
   <v>       0.00497512 </v>
   <v>       0.00497512 </v>
   <v>       0.00497512 </v>
   <v>       0.00497512 </v>
   <v>       0.00497512 </v>
   <v>       0.00497512 </v>
   <v>       0.00497512 </v>
   <v>       0.00497512 </v>
   <v>       0.00497512 </v>
   <v>       0.00497512 </v>
   <v>       0.00497512 </v>
   <v>       0.00497512 </v>
   <v>       0.00497512 </v>
   <v>       0.00497512 </v>
   <v>       0.00497512 </v>
   <v>       0.00497512 </v>
   <v>       0.00497512 </v>
   <v>       0.00497512 </v>
   <v>       0.00497512 </v>
   <v>       0.00497512 </v>
   <v>       0.00497512 </v>
   <v>       0.00497512 </v>
   <v>       0.00497512 </v>
   <v>       0.00497512 </v>
   <v>       0.00497512 </v>
   <v>       0.00497512 </v>
   <v>       0.00497512 </v>
   <v>       0.00497512 </v>
   <v>       0.00497512 </v>
   <v>       0.00497512 </v>
   <v>       0.00497512 </v>
   <v>       0.00497512 </v>
   <v>       0.00497512 </v>
   <v>       0.00497512 </v>
   <v>       0.00497512 </v>
   <v>       0.00497512 </v>
   <v>       0.00497512 </v>
   <v>       0.00497512 </v>
   <v>       0.00497512 </v>
   <v>       0.00497512 </v>
   <v>       0.00497512 </v>
   <v>       0.00497512 </v>
   <v>       0.00497512 </v>
   <v>       0.00497512 </v>
   <v>       0.00497512 </v>
   <v>       0.00497512 </v>
   <v>       0.00497512 </v>
   <v>       0.00497512 </v>
   <v>       0.00497512 </v>
   <v>       0.00497512 </v>
   <v>       0.00497512 </v>
   <v>       0.00497512 </v>
   <v>       0.00497512 </v>
   <v>       0.00497512 </v>
   <v>       0.00497512 </v>
   <v>       0.00497512 </v>
   <v>       0.00497512 </v>
   <v>       0.00497512 </v>
   <v>       0.00497512 </v>
   <v>       0.00497512 </v>
   <v>       0.00497512 </v>
   <v>       0.00497512 </v>
   <v>       0.00497512 </v>
   <v>       0.00497512 </v>
   <v>       0.00497512 </v>
   <v>       0.00497512 </v>
   <v>       0.00497512 </v>
   <v>       0.00497512 </v>
   <v>       0.00497512 </v>
   <v>       0.00497512 </v>
   <v>       0.00497512 </v>
   <v>       0.00497512 </v>
   <v>       0.00497512 </v>
   <v>       0.00497512 </v>
   <v>       0.00497512 </v>
   <v>       0.00497512 </v>
   <v>       0.00497512 </v>
   <v>       0.00497512 </v>
   <v>       0.00497512 </v>
   <v>       0.00497512 </v>
   <v>       0.00497512 </v>
   <v>       0.00497512 </v>
   <v>       0.00497512 </v>
   <v>       0.00497512 </v>
   <v>       0.00497512 </v>
   <v>       0.00497512 </v>
   <v>       0.00497512 </v>
   <v>       0.00497512 </v>
   <v>       0.00497512 </v>
   <v>       0.00497512 </v>
   <v>       0.00497512 </v>
   <v>       0.00497512 </v>
   <v>       0.00497512 </v>
   <v>       0.00497512 </v>
   <v>       0.00497512 </v>
   <v>       0.00497512 </v>
   <v>       0.00497512 </v>
   <v>       0.00497512 </v>
   <v>       0.00497512 </v>
   <v>       0.00497512 </v>
   <v>       0.00497512 </v>
   <v>       0.00497512 </v>
   <v>       0.00497512 </v>
   <v>       0.00497512 </v>
   <v>       0.00497512 </v>
   <v>       0.00497512 </v>
   <v>       0.00497512 </v>
   <v>       0.00497512 </v>
   <v>       0.00497512 </v>
   <v>       0.00497512 </v>
   <v>       0.00497512 </v>
   <v>       0.00497512 </v>
   <v>       0.00497512 </v>
   <v>       0.00497512 </v>
   <v>       0.00497512 </v>
   <v>       0.00497512 </v>
   <v>       0.00497512 </v>
   <v>       0.00497512 </v>
   <v>       0.00497512 </v>
   <v>       0.00497512 </v>
   <v>       0.00497512 </v>
   <v>       0.00497512 </v>
   <v>       0.00497512 </v>
   <v>       0.00497512 </v>
   <v>       0.00497512 </v>
   <v>       0.00497512 </v>
   <v>       0.00497512 </v>
   <v>       0.00497512 </v>
   <v>       0.00497512 </v>
   <v>       0.00497512 </v>
   <v>       0.00497512 </v>
   <v>       0.00497512 </v>
   <v>       0.00497512 </v>
   <v>       0.00497512 </v>
   <v>       0.00497512 </v>
   <v>       0.00497512 </v>
   <v>       0.00497512 </v>
   <v>       0.00497512 </v>
   <v>       0.00497512 </v>
   <v>       0.00497512 </v>
   <v>       0.00497512 </v>
   <v>       0.00497512 </v>
   <v>       0.00497512 </v>
   <v>       0.00497512 </v>
   <v>       0.00497512 </v>
   <v>       0.00497512 </v>
   <v>       0.00497512 </v>
   <v>       0.00497512 </v>
   <v>       0.00497512 </v>
   <v>       0.00497512 </v>
   <v>       0.00497512 </v>
   <v>       0.00497512 </v>
   <v>       0.00497512 </v>
   <v>       0.00497512 </v>
   <v>       0.00497512 </v>
   <v>       0.00497512 </v>
   <v>       0.00497512 </v>
   <v>       0.00497512 </v>
   <v>       0.00497512 </v>
   <v>       0.00497512 </v>
   <v>       0.00497512 </v>
   <v>       0.00497512 </v>
   <v>       0.00497512 </v>
   <v>       0.00497512 </v>
   <v>       0.00497512 </v>
   <v>       0.00497512 </v>
   <v>       0.00497512 </v>
   <v>       0.00497512 </v>
   <v>       0.00497512 </v>
   <v>       0.00497512 </v>
   <v>       0.00497512 </v>
   <v>       0.00497512 </v>
   <v>       0.00497512 </v>
   <v>       0.00497512 </v>
   <v>       0.00497512 </v>
   <v>       0.00497512 </v>
   <v>       0.00497512 </v>
   <v>       0.00497512 </v>
   <v>       0.00497512 </v>
   <v>       0.00497512 </v>
   <v>       0.00497512 </v>
   <v>       0.00497512 </v>
   <v>       0.00497512 </v>
   <v>       0.00497512 </v>
   <v>       0.00497512 </v>
   <v>       0.00497512 </v>
   <v>       0.00497512 </v>
   <v>       0.00497512 </v>
   <v>       0.00497512 </v>
  </varray>
 </kpoints>
 <parameters>
  <separator name="general" >
   <i type="string" name="SYSTEM">BiTe</i>
   <i type="logical" name="LCOMPAT"> F  </i>
  </separator>
  <separator name="electronic" >
   <i type="string" name="PREC">accura</i>
   <i name="ENMAX">    600.00000000</i>
   <i name="ENAUG">    368.79200000</i>
   <i name="EDIFF">      0.00000010</i>
   <i type="int" name="IALGO">    58</i>
   <i type="int" name="IWAVPR">    10</i>
   <i type="int" name="NBANDS">    88</i>
   <i name="NELECT">     28.00000000</i>
   <i type="int" name="TURBO">     0</i>
   <i type="int" name="IRESTART">     0</i>
   <i type="int" name="NREBOOT">     0</i>
   <i type="int" name="NMIN">     0</i>
   <i name="EREF">      0.00000000</i>
   <separator name="electronic smearing" >
    <i type="int" name="ISMEAR">     0</i>
    <i name="SIGMA">      0.01000000</i>
    <i name="KSPACING">      0.50000000</i>
    <i type="logical" name="KGAMMA"> T  </i>
   </separator>
   <separator name="electronic projectors" >
    <i type="logical" name="LREAL"> F  </i>
    <v name="ROPT">      0.00000000      0.00000000</v>
    <i type="int" name="LMAXPAW">  -100</i>
    <i type="int" name="LMAXMIX">     4</i>
    <i type="logical" name="NLSPLINE"> F  </i>
   </separator>
   <separator name="electronic startup" >
    <i type="int" name="ISTART">     0</i>
    <i type="int" name="ICHARG">    11</i>
    <i type="int" name="INIWAV">     1</i>
   </separator>
   <separator name="electronic spin" >
    <i type="int" name="ISPIN">     1</i>
    <i type="logical" name="LNONCOLLINEAR"> T  </i>
    <v name="MAGMOM">      1.00000000      1.00000000      1.00000000      1.00000000      1.00000000      1.00000000      1.00000000      1.00000000      1.00000000      1.00000000      1.00000000      1.00000000      1.00000000      1.00000000      1.00000000</v>
    <i name="NUPDOWN">     -1.00000000</i>
    <i type="logical" name="LSORBIT"> T  </i>
    <v name="SAXIS">      0.00000000      0.00000000      1.00000000</v>
    <i type="logical" name="LSPIRAL"> F  </i>
    <v name="QSPIRAL">      0.00000000      0.00000000      0.00000000</v>
    <i type="logical" name="LZEROZ"> F  </i>
   </separator>
   <separator name="electronic exchange-correlation" >
    <i type="logical" name="LASPH"> F  </i>
    <i type="logical" name="LMETAGGA"> F  </i>
   </separator>
   <separator name="electronic convergence" >
    <i type="int" name="NELM">    60</i>
    <i type="int" name="NELMDL">     0</i>
    <i type="int" name="NELMIN">     2</i>
    <i name="ENINI">    600.00000000</i>
    <separator name="electronic convergence detail" >
     <i type="logical" name="LDIAG"> T  </i>
     <i type="logical" name="LSUBROT"> F  </i>
     <i name="WEIMIN">      0.00000000</i>
     <i name="EBREAK">      0.00000000</i>
     <i name="DEPER">      0.30000000</i>
     <i type="int" name="NRMM">     4</i>
     <i name="TIME">      0.40000000</i>
    </separator>
   </separator>
   <separator name="electronic mixer" >
    <i name="AMIX">      0.40000000</i>
    <i name="BMIX">      1.00000000</i>
    <i name="AMIN">      0.10000000</i>
    <i name="AMIX_MAG">      1.60000000</i>
    <i name="BMIX_MAG">      1.00000000</i>
    <separator name="electronic mixer details" >
     <i type="int" name="IMIX">     4</i>
     <i type="logical" name="MIXFIRST"> F  </i>
     <i type="int" name="MAXMIX">   -45</i>
     <i name="WC">    100.00000000</i>
     <i type="int" name="INIMIX">     1</i>
     <i type="int" name="MIXPRE">     1</i>
     <i type="int" name="MREMOVE">     5</i>
    </separator>
   </separator>
   <separator name="electronic dipolcorrection" >
    <i type="logical" name="LDIPOL"> F  </i>
    <i type="logical" name="LMONO"> F  </i>
    <i type="int" name="IDIPOL">     0</i>
    <i name="EPSILON">      1.00000000</i>
    <v name="DIPOL">   -100.00000000   -100.00000000   -100.00000000</v>
    <i name="EFIELD">      0.00000000</i>
   </separator>
  </separator>
  <separator name="grids" >
   <i type="int" name="NGX">    84</i>
   <i type="int" name="NGY">    84</i>
   <i type="int" name="NGZ">    84</i>
   <i type="int" name="NGXF">   168</i>
   <i type="int" name="NGYF">   168</i>
   <i type="int" name="NGZF">   168</i>
   <i type="logical" name="ADDGRID"> T  </i>
  </separator>
  <separator name="ionic" >
   <i type="int" name="NSW">     0</i>
   <i type="int" name="IBRION">    -1</i>
   <i type="int" name="MDALGO">     0</i>
   <i type="int" name="ISIF">     2</i>
   <i name="PSTRESS">      0.00000000</i>
   <i name="EDIFFG">     -0.00100000</i>
   <i type="int" name="NFREE">     0</i>
   <i name="POTIM">      0.50000000</i>
   <i name="SMASS">     -3.00000000</i>
   <i name="SCALEE">      1.00000000</i>
  </separator>
  <separator name="ionic md" >
   <i name="TEBEG">      0.00010000</i>
   <i name="TEEND">      0.00010000</i>
   <i type="int" name="NBLOCK">     1</i>
   <i type="int" name="KBLOCK">     1</i>
   <i type="int" name="NPACO">   256</i>
   <i name="APACO">     16.00000000</i>
  </separator>
  <separator name="symmetry" >
   <i type="int" name="ISYM">    -1</i>
   <i name="SYMPREC">      0.00001000</i>
  </separator>
  <separator name="dos" >
   <i type="int" name="LORBIT">     0</i>
   <v name="RWIGS">     -1.00000000     -1.00000000</v>
   <i type="int" name="NEDOS">   301</i>
   <i name="EMIN">     10.00000000</i>
   <i name="EMAX">    -10.00000000</i>
   <i name="EFERMI">      0.00000000</i>
  </separator>
  <separator name="writing" >
   <i type="int" name="NWRITE">     2</i>
   <i type="logical" name="LWAVE"> F  </i>
   <i type="logical" name="LDOWNSAMPLE"> F  </i>
   <i type="logical" name="LCHARG"> F  </i>
   <i type="logical" name="LPARD"> F  </i>
   <i type="logical" name="LVTOT"> F  </i>
   <i type="logical" name="LVHAR"> F  </i>
   <i type="logical" name="LELF"> F  </i>
   <i type="logical" name="LOPTICS"> F  </i>
   <v name="STM">      0.00000000      0.00000000      0.00000000      0.00000000      0.00000000      0.00000000      0.00000000</v>
  </separator>
  <separator name="performance" >
   <i type="int" name="NPAR">     4</i>
   <i type="int" name="NSIM">     4</i>
   <i type="int" name="NBLK">    -1</i>
   <i type="logical" name="LPLANE"> T  </i>
   <i type="logical" name="LSCALAPACK"> T  </i>
   <i type="logical" name="LSCAAWARE"> F  </i>
   <i type="logical" name="LSCALU"> F  </i>
   <i type="logical" name="LASYNC"> F  </i>
   <i type="logical" name="LORBITALREAL"> F  </i>
  </separator>
  <separator name="miscellaneous" >
   <i type="int" name="IDIOT">     3</i>
   <i type="int" name="ISPECIAL">     0</i>
   <i type="logical" name="LMUSIC"> F  </i>
   <v name="POMASS">    208.98000000    127.60000000</v>
   <v name="DARWINR">      0.00000000      0.00000000</v>
   <v name="DARWINV">      1.00000000      1.00000000</v>
   <i type="logical" name="LCORR"> T  </i>
  </separator>
  <i type="logical" name="GGA_COMPAT"> F  </i>
  <i type="logical" name="LBERRY"> F  </i>
  <i type="int" name="ICORELEVEL">     0</i>
  <i type="logical" name="LDAU"> F  </i>
  <i type="int" name="I_CONSTRAINED_M">     0</i>
  <separator name="electronic exchange-correlation" >
   <i type="string" name="GGA">--</i>
   <i type="int" name="VOSKOWN">     0</i>
   <i type="logical" name="LHFCALC"> F  </i>
   <i type="string" name="PRECFOCK"></i>
   <i type="logical" name="LSYMGRAD"> F  </i>
   <i type="logical" name="LHFONE"> F  </i>
   <i type="logical" name="LRHFCALC"> F  </i>
   <i type="logical" name="LTHOMAS"> F  </i>
   <i type="logical" name="LMODELHF"> F  </i>
   <i name="ENCUT4O">     -1.00000000</i>
   <i type="int" name="EXXOEP">     0</i>
   <i type="int" name="FOURORBIT">     0</i>
   <i name="AEXX">      0.00000000</i>
   <i name="HFALPHA">      0.00000000</i>
   <i name="MCALPHA">      0.00000000</i>
   <i name="ALDAX">      1.00000000</i>
   <i name="AGGAX">      1.00000000</i>
   <i name="ALDAC">      1.00000000</i>
   <i name="AGGAC">      1.00000000</i>
   <i type="int" name="NKREDX">     1</i>
   <i type="int" name="NKREDY">     1</i>
   <i type="int" name="NKREDZ">     1</i>
   <i type="logical" name="SHIFTRED"> F  </i>
   <i type="logical" name="ODDONLY"> F  </i>
   <i type="logical" name="EVENONLY"> F  </i>
   <i type="int" name="LMAXFOCK">     0</i>
   <i type="int" name="NMAXFOCKAE">     0</i>
   <i type="logical" name="LFOCKAEDFT"> F  </i>
   <i name="HFSCREEN">      0.00000000</i>
   <i name="HFSCREENC">      0.00000000</i>
   <i type="int" name="NBANDSGWLOW">     0</i>
  </separator>
  <separator name="vdW DFT" >
   <i type="logical" name="LUSE_VDW"> F  </i>
   <i name="Zab_VDW">     -0.84910000</i>
   <i name="PARAM1">      0.12340000</i>
   <i name="PARAM2">      1.00000000</i>
   <i name="PARAM3">      0.00000000</i>
  </separator>
  <separator name="model GW" >
   <i type="int" name="MODEL_GW">     0</i>
   <i name="MODEL_EPS0">     20.77764718</i>
   <i name="MODEL_ALPHA">      1.00000000</i>
  </separator>
  <separator name="linear response parameters" >
   <i type="logical" name="LEPSILON"> F  </i>
   <i type="logical" name="LRPA"> F  </i>
   <i type="logical" name="LNABLA"> F  </i>
   <i type="logical" name="LVEL"> F  </i>
   <i type="int" name="KINTER">     0</i>
   <i name="CSHIFT">      0.10000000</i>
   <i name="OMEGAMAX">     -1.00000000</i>
   <i name="DEG_THRESHOLD">      0.00200000</i>
   <i name="RTIME">     -0.10000000</i>
   <i name="WPLASMAI">      0.00000000</i>
   <v name="DFIELD">      0.00000000      0.00000000      0.00000000</v>
   <v name="WPLASMA">      0.00000000      0.00000000      0.00000000      0.00000000      0.00000000      0.00000000      0.00000000      0.00000000      0.00000000</v>
  </separator>
  <separator name="orbital magnetization" >
   <i type="logical" name="NUCIND"> F  </i>
   <v name="MAGPOS">      0.00000000      0.00000000      0.00000000</v>
   <i type="logical" name="LNICSALL"> T  </i>
   <i type="logical" name="ORBITALMAG"> F  </i>
   <i type="logical" name="LMAGBLOCH"> F  </i>
   <i type="logical" name="LCHIMAG"> F  </i>
   <i type="logical" name="LGAUGE"> T  </i>
   <i type="int" name="MAGATOM">     0</i>
   <v name="MAGDIPOL">      0.00000000      0.00000000      0.00000000</v>
   <v name="AVECCONST">      0.00000000      0.00000000      0.00000000</v>
  </separator>
  <separator name="response functions" >
   <i type="logical" name="LADDER"> F  </i>
   <i type="logical" name="LRPAFORCE"> F  </i>
   <i type="logical" name="LFXC"> F  </i>
   <i type="logical" name="LHARTREE"> T  </i>
   <i type="int" name="IBSE">     0</i>
   <v type="int" name="KPOINT">    -1     0     0     0</v>
   <i type="logical" name="LTCTE"> F  </i>
   <i type="logical" name="LTETE"> F  </i>
   <i type="logical" name="LTRIPLET"> F  </i>
   <i type="logical" name="LFXCEPS"> F  </i>
   <i type="logical" name="LFXHEG"> F  </i>
   <i type="int" name="NATURALO">     2</i>
   <i type="logical" name="L2ORDER"> F  </i>
   <i type="logical" name="LMP2LT"> F  </i>
   <i type="logical" name="LUSEW"> F  </i>
   <i name="ENCUTGW">     -2.00000000</i>
   <i name="ENCUTGWSOFT">     -2.00000000</i>
   <i name="ENCUTLF">     -1.00000000</i>
   <i type="int" name="LMAXMP2">    -1</i>
   <i name="SCISSOR">      0.00000000</i>
   <i type="int" name="NOMEGA">     0</i>
   <i type="int" name="NOMEGAR">     0</i>
   <i type="int" name="NBANDSGW">    -1</i>
   <i type="int" name="NBANDSO">    -1</i>
   <i type="int" name="NBANDSV">    -1</i>
   <i type="int" name="NELM">     1</i>
   <i type="int" name="NELMHF">     1</i>
   <i type="int" name="DIM">     3</i>
   <i type="int" name="ANTIRES">     0</i>
   <i name="OMEGAMAX">    -30.00000000</i>
   <i name="OMEGAMIN">    -30.00000000</i>
   <i name="OMEGATL">   -200.00000000</i>
   <i type="int" name="OMEGAGRID">   140</i>
   <i name="CSHIFT">     -0.10000000</i>
   <i type="logical" name="SELFENERGY"> F  </i>
   <i type="logical" name="LSPECTRAL"> F  </i>
   <i type="logical" name="LSPECTRALGW"> F  </i>
   <i type="logical" name="LSINGLES"> F  </i>
   <i type="logical" name="LFERMIGW"> F  </i>
   <i type="logical" name="ODDONLYGW"> F  </i>
   <i type="logical" name="EVENONLYGW"> F  </i>
   <i type="int" name="NKREDLFX">     1</i>
   <i type="int" name="NKREDLFY">     1</i>
   <i type="int" name="NKREDLFZ">     1</i>
   <i type="int" name="MAXMEM">  2800</i>
   <i type="int" name="TELESCOPE">     0</i>
   <i type="int" name="TAUPAR">     1</i>
   <i type="int" name="OMEGAPAR">    -1</i>
   <i name="LAMBDA">      1.00000000</i>
  </separator>
  <separator name="External order field" >
   <i name="OFIELD_KAPPA">      0.00000000</i>
   <v name="OFIELD_K">      0.00000000      0.00000000      0.00000000</v>
   <i name="OFIELD_Q6_NEAR">      0.00000000</i>
   <i name="OFIELD_Q6_FAR">      0.00000000</i>
   <i name="OFIELD_A">      0.00000000</i>
  </separator>
 </parameters>
 <atominfo>
  <atoms>       5 </atoms>
  <types>       2 </types>
  <array name="atoms" >
   <dimension dim="1">ion</dimension>
   <field type="string">element</field>
   <field type="int">atomtype</field>
   <set>
    <rc><c>Bi</c><c>   1</c></rc>
    <rc><c>Bi</c><c>   1</c></rc>
    <rc><c>Te</c><c>   2</c></rc>
    <rc><c>Te</c><c>   2</c></rc>
    <rc><c>Te</c><c>   2</c></rc>
   </set>
  </array>
  <array name="atomtypes" >
   <dimension dim="1">type</dimension>
   <field type="int">atomspertype</field>
   <field type="string">element</field>
   <field>mass</field>
   <field>valence</field>
   <field type="string">pseudopotential</field>
   <set>
    <rc><c>   2</c><c>Bi</c><c>    208.98000000</c><c>      5.00000000</c><c>  PAW_PBE Bi 08Apr2002                  </c></rc>
    <rc><c>   3</c><c>Te</c><c>    127.60000000</c><c>      6.00000000</c><c>  PAW_PBE Te 08Apr2002                  </c></rc>
   </set>
  </array>
 </atominfo>
 <structure name="initialpos" >
  <crystal>
   <varray name="basis" >
    <v>      10.24350399      -2.21767379       0.00000000 </v>
    <v>      10.24350399       2.21767379       0.00000000 </v>
    <v>       9.76338731       0.00000000       3.81099975 </v>
   </varray>
   <i name="volume">    173.14705979 </i>
   <varray name="rec_basis" >
    <v>       0.04881142      -0.22546147      -0.12504982 </v>
    <v>       0.04881142       0.22546147      -0.12504982 </v>
    <v>      -0.00000000       0.00000000       0.26239834 </v>
   </varray>
  </crystal>
  <varray name="positions" >
   <v>       0.39969707       0.39969707       0.39969707 </v>
   <v>       0.60030293       0.60030293       0.60030293 </v>
   <v>       0.00000000       0.00000000       0.00000000 </v>
   <v>       0.21071601       0.21071601       0.21071601 </v>
   <v>       0.78928399       0.78928399       0.78928399 </v>
  </varray>
 </structure>
 <calculation>
  <scstep>
   <time name="total">  754.02  754.08</time>
   <energy>
    <i name="alphaZ">      5.98035775 </i>
    <i name="ewald">   -982.20696473 </i>
    <i name="hartreedc">    -60.56357031 </i>
    <i name="XCdc">   -303.87205541 </i>
    <i name="pawpsdc">   1904.69541230 </i>
    <i name="pawaedc">  -1555.66990822 </i>
    <i name="eentropy">     -0.00014065 </i>
    <i name="bandstr">    148.52076211 </i>
    <i name="atom">    971.44149227 </i>
    <i name="e_fr_energy">    128.32538513 </i>
    <i name="e_wo_entrp">    128.32552578 </i>
    <i name="e_0_energy">    128.32545545 </i>
   </energy>
  </scstep>
  <scstep>
   <time name="total">  851.95  852.01</time>
   <energy>
    <i name="e_fr_energy">      1.32752585 </i>
    <i name="e_wo_entrp">      1.32756383 </i>
    <i name="e_0_energy">      1.32754484 </i>
   </energy>
  </scstep>
  <scstep>
   <time name="total">  828.08  828.14</time>
   <energy>
    <i name="e_fr_energy">    -10.17523747 </i>
    <i name="e_wo_entrp">    -10.17523747 </i>
    <i name="e_0_energy">    -10.17523747 </i>
   </energy>
  </scstep>
  <scstep>
   <time name="total">  839.94  840.00</time>
   <energy>
    <i name="e_fr_energy">    -10.48105983 </i>
    <i name="e_wo_entrp">    -10.48105983 </i>
    <i name="e_0_energy">    -10.48105983 </i>
   </energy>
  </scstep>
  <scstep>
   <time name="total">  815.11  815.17</time>
   <energy>
    <i name="e_fr_energy">    -10.48825291 </i>
    <i name="e_wo_entrp">    -10.48825291 </i>
    <i name="e_0_energy">    -10.48825291 </i>
   </energy>
  </scstep>
  <scstep>
   <time name="total">  689.46  690.12</time>
   <energy>
    <i name="e_fr_energy">    -10.48825291 </i>
    <i name="e_wo_entrp">    -10.48825291 </i>
    <i name="e_0_energy">    -10.48825291 </i>
   </energy>
  </scstep>
  <scstep>
   <time name="total">  687.93  688.08</time>
   <energy>
    <i name="e_fr_energy">    -10.48851303 </i>
    <i name="e_wo_entrp">    -10.48851303 </i>
    <i name="e_0_energy">    -10.48851303 </i>
   </energy>
  </scstep>
  <scstep>
   <time name="total">  686.21  686.28</time>
   <energy>
    <i name="e_fr_energy">    -10.48858471 </i>
    <i name="e_wo_entrp">    -10.48858471 </i>
    <i name="e_0_energy">    -10.48858471 </i>
   </energy>
  </scstep>
  <scstep>
   <time name="total">  689.08  689.97</time>
   <energy>
    <i name="e_fr_energy">    -10.48860768 </i>
    <i name="e_wo_entrp">    -10.48860768 </i>
    <i name="e_0_energy">    -10.48860768 </i>
   </energy>
  </scstep>
  <scstep>
   <time name="total">  684.36  684.41</time>
   <energy>
    <i name="e_fr_energy">    -10.48860940 </i>
    <i name="e_wo_entrp">    -10.48860940 </i>
    <i name="e_0_energy">    -10.48860940 </i>
   </energy>
  </scstep>
  <scstep>
   <time name="total">  684.69  684.75</time>
   <energy>
    <i name="e_fr_energy">    -10.48860955 </i>
    <i name="e_wo_entrp">    -10.48860955 </i>
    <i name="e_0_energy">    -10.48860955 </i>
   </energy>
  </scstep>
  <scstep>
   <time name="total">  905.90  905.97</time>
   <energy>
    <i name="alphaZ">      5.98035775 </i>
    <i name="ewald">   -982.20696473 </i>
    <i name="hartreedc">    -60.56357031 </i>
    <i name="XCdc">   -303.87205541 </i>
    <i name="pawpsdc">   1904.69541230 </i>
    <i name="pawaedc">  -1555.66990822 </i>
    <i name="eentropy">     -0.00000000 </i>
    <i name="bandstr">      9.70662676 </i>
    <i name="atom">    971.44149227 </i>
    <i name="e_fr_energy">    -10.48860958 </i>
    <i name="e_wo_entrp">    -10.48860958 </i>
    <i name="e_0_energy">    -10.48860958 </i>
   </energy>
  </scstep>
  <structure>
   <crystal>
    <varray name="basis" >
     <v>      10.24350399      -2.21767379       0.00000000 </v>
     <v>      10.24350399       2.21767379       0.00000000 </v>
     <v>       9.76338731       0.00000000       3.81099975 </v>
    </varray>
    <i name="volume">    173.14705979 </i>
    <varray name="rec_basis" >
     <v>       0.04881142      -0.22546147      -0.12504982 </v>
     <v>       0.04881142       0.22546147      -0.12504982 </v>
     <v>      -0.00000000       0.00000000       0.26239834 </v>
    </varray>
   </crystal>
   <varray name="positions" >
    <v>       0.39969707       0.39969707       0.39969707 </v>
    <v>       0.60030293       0.60030293       0.60030293 </v>
    <v>       0.00000000       0.00000000       0.00000000 </v>
    <v>       0.21071601       0.21071601       0.21071601 </v>
    <v>       0.78928399       0.78928399       0.78928399 </v>
   </varray>
  </structure>
  <varray name="forces" >
   <v>       0.14639711      -0.02933105       0.00105401 </v>
   <v>      -0.14639686       0.02933095      -0.00105401 </v>
   <v>      -0.00000007       0.00000010       0.00000017 </v>
   <v>       0.17733931      -0.10889817       0.00888730 </v>
   <v>      -0.17733949       0.10889818      -0.00888746 </v>
  </varray>
  <varray name="stress" >
   <v>      47.47077997       7.90666457     -19.74982259 </v>
   <v>       7.90666421     278.50131601     -30.19269296 </v>
   <v>     -19.74982298     -30.19269346     209.58607365 </v>
  </varray>
  <energy>
   <i name="e_fr_energy">    -11.92452308 </i>
   <i name="e_wo_entrp">    -11.92452308 </i>
   <i name="e_0_energy">     -0.00000000 </i>
  </energy>
  <time name="totalsc"> 9419.75 9422.05</time>
  <eigenvalues>
   <array>
    <dimension dim="1">band</dimension>
    <dimension dim="2">kpoint</dimension>
    <dimension dim="3">spin</dimension>
    <field>eigene</field>
    <field>occ</field>
    <set>
     <set comment="spin 1">
      <set comment="kpoint 1">
       <r>   -5.9864    1.0000 </r>
       <r>   -5.9864    1.0000 </r>
       <r>   -5.8895    1.0000 </r>
       <r>   -5.8895    1.0000 </r>
       <r>   -5.4488    1.0000 </r>
       <r>   -5.4488    1.0000 </r>
       <r>   -4.8064    1.0000 </r>
       <r>   -4.8064    1.0000 </r>
       <r>   -4.2162    1.0000 </r>
       <r>   -4.2162    1.0000 </r>
       <r>    0.5674    1.0000 </r>
       <r>    0.5674    1.0000 </r>
       <r>    1.3516    1.0000 </r>
       <r>    1.3516    1.0000 </r>
       <r>    1.5808    1.0000 </r>
       <r>    1.5808    1.0000 </r>
       <r>    2.3720    1.0000 </r>
       <r>    2.3720    1.0000 </r>
       <r>    2.6037    1.0000 </r>
       <r>    2.6037    1.0000 </r>
       <r>    3.2858    1.0000 </r>
       <r>    3.2858    1.0000 </r>
       <r>    3.7690    1.0000 </r>
       <r>    3.7690    1.0000 </r>
       <r>    4.4147    1.0000 </r>
       <r>    4.4147    1.0000 </r>
       <r>    4.5254    1.0000 </r>
       <r>    4.5254    1.0000 </r>
       <r>    6.3371    0.0000 </r>
       <r>    6.3371    0.0000 </r>
       <r>    6.9655    0.0000 </r>
       <r>    6.9655    0.0000 </r>
       <r>    7.4320    0.0000 </r>
       <r>    7.4320    0.0000 </r>
       <r>    7.8016    0.0000 </r>
       <r>    7.8016    0.0000 </r>
       <r>    8.6017    0.0000 </r>
       <r>    8.6017    0.0000 </r>
       <r>    9.1291    0.0000 </r>
       <r>    9.1292    0.0000 </r>
       <r>   10.3507    0.0000 </r>
       <r>   10.3507    0.0000 </r>
       <r>   10.7124    0.0000 </r>
       <r>   10.7124    0.0000 </r>
       <r>   12.3641    0.0000 </r>
       <r>   12.3642    0.0000 </r>
       <r>   13.7271    0.0000 </r>
       <r>   13.7271    0.0000 </r>
       <r>   14.0343    0.0000 </r>
       <r>   14.0343    0.0000 </r>
       <r>   14.3176    0.0000 </r>
       <r>   14.3177    0.0000 </r>
       <r>   14.4149    0.0000 </r>
       <r>   14.4149    0.0000 </r>
       <r>   14.7654    0.0000 </r>
       <r>   14.7655    0.0000 </r>
       <r>   14.9245    0.0000 </r>
       <r>   14.9246    0.0000 </r>
       <r>   15.4571    0.0000 </r>
       <r>   15.4571    0.0000 </r>
       <r>   15.7881    0.0000 </r>
       <r>   15.7881    0.0000 </r>
       <r>   15.9097    0.0000 </r>
       <r>   15.9097    0.0000 </r>
       <r>   16.0894    0.0000 </r>
       <r>   16.0894    0.0000 </r>
       <r>   16.2704    0.0000 </r>
       <r>   16.2704    0.0000 </r>
       <r>   16.4290    0.0000 </r>
       <r>   16.4290    0.0000 </r>
       <r>   16.9927    0.0000 </r>
       <r>   16.9927    0.0000 </r>
       <r>   17.2875    0.0000 </r>
       <r>   17.2875    0.0000 </r>
       <r>   17.5774    0.0000 </r>
       <r>   17.5774    0.0000 </r>
       <r>   17.6874    0.0000 </r>
       <r>   17.6874    0.0000 </r>
       <r>   18.3208    0.0000 </r>
       <r>   18.3209    0.0000 </r>
       <r>   18.4629    0.0000 </r>
       <r>   18.4636    0.0000 </r>
       <r>   18.9391    0.0000 </r>
       <r>   18.9487    0.0000 </r>
       <r>   19.1536    0.0000 </r>
       <r>   19.1770    0.0000 </r>
       <r>   19.2396    0.0000 </r>
       <r>   19.2702    0.0000 </r>
      </set>
      <set comment="kpoint 2">
       <r>   -6.0251    1.0000 </r>
       <r>   -6.0251    1.0000 </r>
       <r>   -5.8843    1.0000 </r>
       <r>   -5.8843    1.0000 </r>
       <r>   -5.4613    1.0000 </r>
       <r>   -5.4613    1.0000 </r>
       <r>   -4.7441    1.0000 </r>
       <r>   -4.7441    1.0000 </r>
       <r>   -4.2345    1.0000 </r>
       <r>   -4.2345    1.0000 </r>
       <r>    0.5903    1.0000 </r>
       <r>    0.5903    1.0000 </r>
       <r>    1.3287    1.0000 </r>
       <r>    1.3287    1.0000 </r>
       <r>    1.6069    1.0000 </r>
       <r>    1.6069    1.0000 </r>
       <r>    2.3864    1.0000 </r>
       <r>    2.3864    1.0000 </r>
       <r>    2.5736    1.0000 </r>
       <r>    2.5736    1.0000 </r>
       <r>    3.2639    1.0000 </r>
       <r>    3.2639    1.0000 </r>
       <r>    3.7932    1.0000 </r>
       <r>    3.7932    1.0000 </r>
       <r>    4.4617    1.0000 </r>
       <r>    4.4617    1.0000 </r>
       <r>    4.5563    1.0000 </r>
       <r>    4.5563    1.0000 </r>
       <r>    6.2977    0.0000 </r>
       <r>    6.2977    0.0000 </r>
       <r>    6.9364    0.0000 </r>
       <r>    6.9364    0.0000 </r>
       <r>    7.3986    0.0000 </r>
       <r>    7.3986    0.0000 </r>
       <r>    7.8188    0.0000 </r>
       <r>    7.8188    0.0000 </r>
       <r>    8.6196    0.0000 </r>
       <r>    8.6197    0.0000 </r>
       <r>    9.1579    0.0000 </r>
       <r>    9.1579    0.0000 </r>
       <r>   10.3523    0.0000 </r>
       <r>   10.3523    0.0000 </r>
       <r>   10.6531    0.0000 </r>
       <r>   10.6532    0.0000 </r>
       <r>   12.5182    0.0000 </r>
       <r>   12.5182    0.0000 </r>
       <r>   13.5869    0.0000 </r>
       <r>   13.5869    0.0000 </r>
       <r>   14.0227    0.0000 </r>
       <r>   14.0227    0.0000 </r>
       <r>   14.2357    0.0000 </r>
       <r>   14.2357    0.0000 </r>
       <r>   14.3141    0.0000 </r>
       <r>   14.3141    0.0000 </r>
       <r>   14.6491    0.0000 </r>
       <r>   14.6492    0.0000 </r>
       <r>   15.0524    0.0000 </r>
       <r>   15.0525    0.0000 </r>
       <r>   15.3955    0.0000 </r>
       <r>   15.3955    0.0000 </r>
       <r>   15.7429    0.0000 </r>
       <r>   15.7429    0.0000 </r>
       <r>   15.9782    0.0000 </r>
       <r>   15.9782    0.0000 </r>
       <r>   16.1659    0.0000 </r>
       <r>   16.1659    0.0000 </r>
       <r>   16.3863    0.0000 </r>
       <r>   16.3864    0.0000 </r>
       <r>   16.5774    0.0000 </r>
       <r>   16.5774    0.0000 </r>
       <r>   16.8816    0.0000 </r>
       <r>   16.8816    0.0000 </r>
       <r>   17.1727    0.0000 </r>
       <r>   17.1728    0.0000 </r>
       <r>   17.4559    0.0000 </r>
       <r>   17.4560    0.0000 </r>
       <r>   17.7196    0.0000 </r>
       <r>   17.7196    0.0000 </r>
       <r>   18.4228    0.0000 </r>
       <r>   18.4233    0.0000 </r>
       <r>   18.5591    0.0000 </r>
       <r>   18.5605    0.0000 </r>
       <r>   18.8561    0.0000 </r>
       <r>   18.8618    0.0000 </r>
       <r>   19.0213    0.0000 </r>
       <r>   19.0407    0.0000 </r>
       <r>   19.2732    0.0000 </r>
       <r>   19.3366    0.0000 </r>
      </set>
      <set comment="kpoint 3">
       <r>   -6.0671    1.0000 </r>
       <r>   -6.0671    1.0000 </r>
       <r>   -5.9039    1.0000 </r>
       <r>   -5.9039    1.0000 </r>
       <r>   -5.4520    1.0000 </r>
       <r>   -5.4520    1.0000 </r>
       <r>   -4.6781    1.0000 </r>
       <r>   -4.6781    1.0000 </r>
       <r>   -4.2507    1.0000 </r>
       <r>   -4.2507    1.0000 </r>
       <r>    0.6174    1.0000 </r>
       <r>    0.6175    1.0000 </r>
       <r>    1.3084    1.0000 </r>
       <r>    1.3084    1.0000 </r>
       <r>    1.6391    1.0000 </r>
       <r>    1.6391    1.0000 </r>
       <r>    2.4036    1.0000 </r>
       <r>    2.4036    1.0000 </r>
       <r>    2.5456    1.0000 </r>
       <r>    2.5456    1.0000 </r>
       <r>    3.2409    1.0000 </r>
       <r>    3.2409    1.0000 </r>
       <r>    3.8234    1.0000 </r>
       <r>    3.8234    1.0000 </r>
       <r>    4.5089    1.0000 </r>
       <r>    4.5089    1.0000 </r>
       <r>    4.5890    1.0000 </r>
       <r>    4.5890    1.0000 </r>
       <r>    6.2572    0.0000 </r>
       <r>    6.2572    0.0000 </r>
       <r>    6.9096    0.0000 </r>
       <r>    6.9096    0.0000 </r>
       <r>    7.3637    0.0000 </r>
       <r>    7.3637    0.0000 </r>
       <r>    7.8360    0.0000 </r>
       <r>    7.8360    0.0000 </r>
       <r>    8.6435    0.0000 </r>
       <r>    8.6435    0.0000 </r>
       <r>    9.1799    0.0000 </r>
       <r>    9.1800    0.0000 </r>
       <r>   10.3453    0.0000 </r>
       <r>   10.3453    0.0000 </r>
       <r>   10.6082    0.0000 </r>
       <r>   10.6083    0.0000 </r>
       <r>   12.6714    0.0000 </r>
       <r>   12.6714    0.0000 </r>
       <r>   13.4439    0.0000 </r>
       <r>   13.4440    0.0000 </r>
       <r>   13.9656    0.0000 </r>
       <r>   13.9656    0.0000 </r>
       <r>   14.1327    0.0000 </r>
       <r>   14.1327    0.0000 </r>
       <r>   14.2227    0.0000 </r>
       <r>   14.2227    0.0000 </r>
       <r>   14.5176    0.0000 </r>
       <r>   14.5177    0.0000 </r>
       <r>   15.1841    0.0000 </r>
       <r>   15.1841    0.0000 </r>
       <r>   15.3023    0.0000 </r>
       <r>   15.3023    0.0000 </r>
       <r>   15.6970    0.0000 </r>
       <r>   15.6971    0.0000 </r>
       <r>   16.0912    0.0000 </r>
       <r>   16.0912    0.0000 </r>
       <r>   16.2446    0.0000 </r>
       <r>   16.2446    0.0000 </r>
       <r>   16.5307    0.0000 </r>
       <r>   16.5307    0.0000 </r>
       <r>   16.6983    0.0000 </r>
       <r>   16.6983    0.0000 </r>
       <r>   16.7917    0.0000 </r>
       <r>   16.7917    0.0000 </r>
       <r>   17.0630    0.0000 </r>
       <r>   17.0630    0.0000 </r>
       <r>   17.3341    0.0000 </r>
       <r>   17.3342    0.0000 </r>
       <r>   17.7600    0.0000 </r>
       <r>   17.7600    0.0000 </r>
       <r>   18.5274    0.0000 </r>
       <r>   18.5281    0.0000 </r>
       <r>   18.6232    0.0000 </r>
       <r>   18.6264    0.0000 </r>
       <r>   18.8337    0.0000 </r>
       <r>   18.8403    0.0000 </r>
       <r>   18.9014    0.0000 </r>
       <r>   18.9088    0.0000 </r>
       <r>   19.1812    0.0000 </r>
       <r>   19.2564    0.0000 </r>
      </set>
      <set comment="kpoint 4">
       <r>   -6.1122    1.0000 </r>
       <r>   -6.1122    1.0000 </r>
       <r>   -5.9434    1.0000 </r>
       <r>   -5.9434    1.0000 </r>
       <r>   -5.4238    1.0000 </r>
       <r>   -5.4238    1.0000 </r>
       <r>   -4.6131    1.0000 </r>
       <r>   -4.6131    1.0000 </r>
       <r>   -4.2619    1.0000 </r>
       <r>   -4.2618    1.0000 </r>
       <r>    0.6488    1.0000 </r>
       <r>    0.6488    1.0000 </r>
       <r>    1.2917    1.0000 </r>
       <r>    1.2917    1.0000 </r>
       <r>    1.6760    1.0000 </r>
       <r>    1.6760    1.0000 </r>
       <r>    2.4212    1.0000 </r>
       <r>    2.4212    1.0000 </r>
       <r>    2.5222    1.0000 </r>
       <r>    2.5222    1.0000 </r>
       <r>    3.2178    1.0000 </r>
       <r>    3.2178    1.0000 </r>
       <r>    3.8583    1.0000 </r>
       <r>    3.8583    1.0000 </r>
       <r>    4.5553    1.0000 </r>
       <r>    4.5553    1.0000 </r>
       <r>    4.6240    1.0000 </r>
       <r>    4.6240    1.0000 </r>
       <r>    6.2159    0.0000 </r>
       <r>    6.2159    0.0000 </r>
       <r>    6.8851    0.0000 </r>
       <r>    6.8851    0.0000 </r>
       <r>    7.3279    0.0000 </r>
       <r>    7.3279    0.0000 </r>
       <r>    7.8533    0.0000 </r>
       <r>    7.8534    0.0000 </r>
       <r>    8.6724    0.0000 </r>
       <r>    8.6725    0.0000 </r>
       <r>    9.1948    0.0000 </r>
       <r>    9.1948    0.0000 </r>
       <r>   10.3315    0.0000 </r>
       <r>   10.3315    0.0000 </r>
       <r>   10.5758    0.0000 </r>
       <r>   10.5758    0.0000 </r>
       <r>   12.8141    0.0000 </r>
       <r>   12.8141    0.0000 </r>
       <r>   13.3093    0.0000 </r>
       <r>   13.3093    0.0000 </r>
       <r>   13.8785    0.0000 </r>
       <r>   13.8786    0.0000 </r>
       <r>   14.0035    0.0000 </r>
       <r>   14.0035    0.0000 </r>
       <r>   14.1530    0.0000 </r>
       <r>   14.1530    0.0000 </r>
       <r>   14.3779    0.0000 </r>
       <r>   14.3780    0.0000 </r>
       <r>   15.1696    0.0000 </r>
       <r>   15.1696    0.0000 </r>
       <r>   15.3290    0.0000 </r>
       <r>   15.3290    0.0000 </r>
       <r>   15.6531    0.0000 </r>
       <r>   15.6532    0.0000 </r>
       <r>   16.2195    0.0000 </r>
       <r>   16.2195    0.0000 </r>
       <r>   16.3195    0.0000 </r>
       <r>   16.3195    0.0000 </r>
       <r>   16.6165    0.0000 </r>
       <r>   16.6165    0.0000 </r>
       <r>   16.6957    0.0000 </r>
       <r>   16.6957    0.0000 </r>
       <r>   16.8968    0.0000 </r>
       <r>   16.8968    0.0000 </r>
       <r>   16.9690    0.0000 </r>
       <r>   16.9690    0.0000 </r>
       <r>   17.2271    0.0000 </r>
       <r>   17.2271    0.0000 </r>
       <r>   17.7903    0.0000 </r>
       <r>   17.7904    0.0000 </r>
       <r>   18.5714    0.0000 </r>
       <r>   18.5718    0.0000 </r>
       <r>   18.6453    0.0000 </r>
       <r>   18.6478    0.0000 </r>
       <r>   18.7890    0.0000 </r>
       <r>   18.8031    0.0000 </r>
       <r>   18.9387    0.0000 </r>
       <r>   18.9805    0.0000 </r>
       <r>   19.0689    0.0000 </r>
       <r>   19.1083    0.0000 </r>
      </set>
      <set comment="kpoint 5">
       <r>   -6.1604    1.0000 </r>
       <r>   -6.1604    1.0000 </r>
       <r>   -5.9950    1.0000 </r>
       <r>   -5.9950    1.0000 </r>
       <r>   -5.3837    1.0000 </r>
       <r>   -5.3837    1.0000 </r>
       <r>   -4.5556    1.0000 </r>
       <r>   -4.5556    1.0000 </r>
       <r>   -4.2626    1.0000 </r>
       <r>   -4.2626    1.0000 </r>
       <r>    0.6842    1.0000 </r>
       <r>    0.6842    1.0000 </r>
       <r>    1.2793    1.0000 </r>
       <r>    1.2793    1.0000 </r>
       <r>    1.7169    1.0000 </r>
       <r>    1.7169    1.0000 </r>
       <r>    2.4322    1.0000 </r>
       <r>    2.4323    1.0000 </r>
       <r>    2.5107    1.0000 </r>
       <r>    2.5108    1.0000 </r>
       <r>    3.1954    1.0000 </r>
       <r>    3.1954    1.0000 </r>
       <r>    3.8969    1.0000 </r>
       <r>    3.8969    1.0000 </r>
       <r>    4.5997    1.0000 </r>
       <r>    4.5997    1.0000 </r>
       <r>    4.6621    1.0000 </r>
       <r>    4.6621    1.0000 </r>
       <r>    6.1738    0.0000 </r>
       <r>    6.1738    0.0000 </r>
       <r>    6.8632    0.0000 </r>
       <r>    6.8632    0.0000 </r>
       <r>    7.2919    0.0000 </r>
       <r>    7.2919    0.0000 </r>
       <r>    7.8704    0.0000 </r>
       <r>    7.8704    0.0000 </r>
       <r>    8.7056    0.0000 </r>
       <r>    8.7056    0.0000 </r>
       <r>    9.2023    0.0000 </r>
       <r>    9.2023    0.0000 </r>
       <r>   10.3135    0.0000 </r>
       <r>   10.3135    0.0000 </r>
       <r>   10.5523    0.0000 </r>
       <r>   10.5523    0.0000 </r>
       <r>   12.9053    0.0000 </r>
       <r>   12.9054    0.0000 </r>
       <r>   13.2232    0.0000 </r>
       <r>   13.2232    0.0000 </r>
       <r>   13.7773    0.0000 </r>
       <r>   13.7773    0.0000 </r>
       <r>   13.8706    0.0000 </r>
       <r>   13.8707    0.0000 </r>
       <r>   14.0819    0.0000 </r>
       <r>   14.0819    0.0000 </r>
       <r>   14.2358    0.0000 </r>
       <r>   14.2359    0.0000 </r>
       <r>   15.0480    0.0000 </r>
       <r>   15.0480    0.0000 </r>
       <r>   15.4273    0.0000 </r>
       <r>   15.4274    0.0000 </r>
       <r>   15.6177    0.0000 </r>
       <r>   15.6177    0.0000 </r>
       <r>   16.2850    0.0000 </r>
       <r>   16.2851    0.0000 </r>
       <r>   16.4127    0.0000 </r>
       <r>   16.4128    0.0000 </r>
       <r>   16.5587    0.0000 </r>
       <r>   16.5588    0.0000 </r>
       <r>   16.7962    0.0000 </r>
       <r>   16.7962    0.0000 </r>
       <r>   16.9227    0.0000 </r>
       <r>   16.9227    0.0000 </r>
       <r>   17.0251    0.0000 </r>
       <r>   17.0251    0.0000 </r>
       <r>   17.1735    0.0000 </r>
       <r>   17.1736    0.0000 </r>
       <r>   17.8063    0.0000 </r>
       <r>   17.8064    0.0000 </r>
       <r>   18.4730    0.0000 </r>
       <r>   18.4732    0.0000 </r>
       <r>   18.6646    0.0000 </r>
       <r>   18.6651    0.0000 </r>
       <r>   18.7840    0.0000 </r>
       <r>   18.7951    0.0000 </r>
       <r>   18.9986    0.0000 </r>
       <r>   19.0089    0.0000 </r>
       <r>   19.0591    0.0000 </r>
       <r>   19.1134    0.0000 </r>
      </set>
      <set comment="kpoint 6">
       <r>   -6.2119    1.0000 </r>
       <r>   -6.2119    1.0000 </r>
       <r>   -6.0519    1.0000 </r>
       <r>   -6.0519    1.0000 </r>
       <r>   -5.3377    1.0000 </r>
       <r>   -5.3377    1.0000 </r>
       <r>   -4.5138    1.0000 </r>
       <r>   -4.5138    1.0000 </r>
       <r>   -4.2451    1.0000 </r>
       <r>   -4.2451    1.0000 </r>
       <r>    0.7235    1.0000 </r>
       <r>    0.7235    1.0000 </r>
       <r>    1.2718    1.0000 </r>
       <r>    1.2718    1.0000 </r>
       <r>    1.7609    1.0000 </r>
       <r>    1.7610    1.0000 </r>
       <r>    2.4270    1.0000 </r>
       <r>    2.4270    1.0000 </r>
       <r>    2.5215    1.0000 </r>
       <r>    2.5215    1.0000 </r>
       <r>    3.1744    1.0000 </r>
       <r>    3.1744    1.0000 </r>
       <r>    3.9384    1.0000 </r>
       <r>    3.9384    1.0000 </r>
       <r>    4.6407    1.0000 </r>
       <r>    4.6407    1.0000 </r>
       <r>    4.7042    1.0000 </r>
       <r>    4.7042    1.0000 </r>
       <r>    6.1313    0.0000 </r>
       <r>    6.1313    0.0000 </r>
       <r>    6.8438    0.0000 </r>
       <r>    6.8438    0.0000 </r>
       <r>    7.2564    0.0000 </r>
       <r>    7.2564    0.0000 </r>
       <r>    7.8868    0.0000 </r>
       <r>    7.8868    0.0000 </r>
       <r>    8.7422    0.0000 </r>
       <r>    8.7422    0.0000 </r>
       <r>    9.2030    0.0000 </r>
       <r>    9.2031    0.0000 </r>
       <r>   10.2933    0.0000 </r>
       <r>   10.2933    0.0000 </r>
       <r>   10.5343    0.0000 </r>
       <r>   10.5343    0.0000 </r>
       <r>   12.8611    0.0000 </r>
       <r>   12.8611    0.0000 </r>
       <r>   13.2634    0.0000 </r>
       <r>   13.2634    0.0000 </r>
       <r>   13.6739    0.0000 </r>
       <r>   13.6739    0.0000 </r>
       <r>   13.7447    0.0000 </r>
       <r>   13.7447    0.0000 </r>
       <r>   14.0024    0.0000 </r>
       <r>   14.0024    0.0000 </r>
       <r>   14.0964    0.0000 </r>
       <r>   14.0964    0.0000 </r>
       <r>   14.9210    0.0000 </r>
       <r>   14.9211    0.0000 </r>
       <r>   15.4642    0.0000 </r>
       <r>   15.4642    0.0000 </r>
       <r>   15.6090    0.0000 </r>
       <r>   15.6090    0.0000 </r>
       <r>   16.2470    0.0000 </r>
       <r>   16.2470    0.0000 </r>
       <r>   16.5151    0.0000 </r>
       <r>   16.5151    0.0000 </r>
       <r>   16.5571    0.0000 </r>
       <r>   16.5571    0.0000 </r>
       <r>   16.7870    0.0000 </r>
       <r>   16.7870    0.0000 </r>
       <r>   16.9330    0.0000 </r>
       <r>   16.9330    0.0000 </r>
       <r>   17.1500    0.0000 </r>
       <r>   17.1500    0.0000 </r>
       <r>   17.2439    0.0000 </r>
       <r>   17.2440    0.0000 </r>
       <r>   17.8182    0.0000 </r>
       <r>   17.8183    0.0000 </r>
       <r>   18.3362    0.0000 </r>
       <r>   18.3370    0.0000 </r>
       <r>   18.5837    0.0000 </r>
       <r>   18.5873    0.0000 </r>
       <r>   18.8018    0.0000 </r>
       <r>   18.8072    0.0000 </r>
       <r>   18.9573    0.0000 </r>
       <r>   18.9856    0.0000 </r>
       <r>   19.1134    0.0000 </r>
       <r>   19.2288    0.0000 </r>
      </set>
      <set comment="kpoint 7">
       <r>   -6.2669    1.0000 </r>
       <r>   -6.2669    1.0000 </r>
       <r>   -6.1098    1.0000 </r>
       <r>   -6.1098    1.0000 </r>
       <r>   -5.2901    1.0000 </r>
       <r>   -5.2901    1.0000 </r>
       <r>   -4.4923    1.0000 </r>
       <r>   -4.4922    1.0000 </r>
       <r>   -4.2045    1.0000 </r>
       <r>   -4.2045    1.0000 </r>
       <r>    0.7664    1.0000 </r>
       <r>    0.7664    1.0000 </r>
       <r>    1.2696    1.0000 </r>
       <r>    1.2696    1.0000 </r>
       <r>    1.8076    1.0000 </r>
       <r>    1.8076    1.0000 </r>
       <r>    2.4108    1.0000 </r>
       <r>    2.4108    1.0000 </r>
       <r>    2.5493    1.0000 </r>
       <r>    2.5493    1.0000 </r>
       <r>    3.1553    1.0000 </r>
       <r>    3.1553    1.0000 </r>
       <r>    3.9820    1.0000 </r>
       <r>    3.9820    1.0000 </r>
       <r>    4.6776    1.0000 </r>
       <r>    4.6776    1.0000 </r>
       <r>    4.7503    1.0000 </r>
       <r>    4.7503    1.0000 </r>
       <r>    6.0884    0.0000 </r>
       <r>    6.0884    0.0000 </r>
       <r>    6.8271    0.0000 </r>
       <r>    6.8271    0.0000 </r>
       <r>    7.2220    0.0000 </r>
       <r>    7.2220    0.0000 </r>
       <r>    7.9017    0.0000 </r>
       <r>    7.9017    0.0000 </r>
       <r>    8.7816    0.0000 </r>
       <r>    8.7816    0.0000 </r>
       <r>    9.1979    0.0000 </r>
       <r>    9.1980    0.0000 </r>
       <r>   10.2715    0.0000 </r>
       <r>   10.2715    0.0000 </r>
       <r>   10.5195    0.0000 </r>
       <r>   10.5195    0.0000 </r>
       <r>   12.7349    0.0000 </r>
       <r>   12.7349    0.0000 </r>
       <r>   13.3422    0.0000 </r>
       <r>   13.3422    0.0000 </r>
       <r>   13.5940    0.0000 </r>
       <r>   13.5940    0.0000 </r>
       <r>   13.6386    0.0000 </r>
       <r>   13.6386    0.0000 </r>
       <r>   13.9129    0.0000 </r>
       <r>   13.9130    0.0000 </r>
       <r>   13.9678    0.0000 </r>
       <r>   13.9678    0.0000 </r>
       <r>   14.7941    0.0000 </r>
       <r>   14.7941    0.0000 </r>
       <r>   15.4336    0.0000 </r>
       <r>   15.4336    0.0000 </r>
       <r>   15.6067    0.0000 </r>
       <r>   15.6068    0.0000 </r>
       <r>   16.1996    0.0000 </r>
       <r>   16.1996    0.0000 </r>
       <r>   16.4993    0.0000 </r>
       <r>   16.4993    0.0000 </r>
       <r>   16.5969    0.0000 </r>
       <r>   16.5969    0.0000 </r>
       <r>   16.7860    0.0000 </r>
       <r>   16.7860    0.0000 </r>
       <r>   16.9514    0.0000 </r>
       <r>   16.9514    0.0000 </r>
       <r>   17.3168    0.0000 </r>
       <r>   17.3168    0.0000 </r>
       <r>   17.3614    0.0000 </r>
       <r>   17.3614    0.0000 </r>
       <r>   17.8423    0.0000 </r>
       <r>   17.8423    0.0000 </r>
       <r>   18.2080    0.0000 </r>
       <r>   18.2080    0.0000 </r>
       <r>   18.4436    0.0000 </r>
       <r>   18.4443    0.0000 </r>
       <r>   18.7258    0.0000 </r>
       <r>   18.7343    0.0000 </r>
       <r>   18.9773    0.0000 </r>
       <r>   19.0379    0.0000 </r>
       <r>   19.2322    0.0000 </r>
       <r>   19.3225    0.0000 </r>
      </set>
      <set comment="kpoint 8">
       <r>   -6.3256    1.0000 </r>
       <r>   -6.3256    1.0000 </r>
       <r>   -6.1661    1.0000 </r>
       <r>   -6.1661    1.0000 </r>
       <r>   -5.2439    1.0000 </r>
       <r>   -5.2439    1.0000 </r>
       <r>   -4.4864    1.0000 </r>
       <r>   -4.4864    1.0000 </r>
       <r>   -4.1449    1.0000 </r>
       <r>   -4.1449    1.0000 </r>
       <r>    0.8125    1.0000 </r>
       <r>    0.8125    1.0000 </r>
       <r>    1.2732    1.0000 </r>
       <r>    1.2732    1.0000 </r>
       <r>    1.8561    1.0000 </r>
       <r>    1.8561    1.0000 </r>
       <r>    2.3926    1.0000 </r>
       <r>    2.3926    1.0000 </r>
       <r>    2.5858    1.0000 </r>
       <r>    2.5858    1.0000 </r>
       <r>    3.1385    1.0000 </r>
       <r>    3.1385    1.0000 </r>
       <r>    4.0272    1.0000 </r>
       <r>    4.0272    1.0000 </r>
       <r>    4.7111    1.0000 </r>
       <r>    4.7111    1.0000 </r>
       <r>    4.7991    1.0000 </r>
       <r>    4.7991    1.0000 </r>
       <r>    6.0455    0.0000 </r>
       <r>    6.0455    0.0000 </r>
       <r>    6.8128    0.0000 </r>
       <r>    6.8128    0.0000 </r>
       <r>    7.1895    0.0000 </r>
       <r>    7.1895    0.0000 </r>
       <r>    7.9144    0.0000 </r>
       <r>    7.9145    0.0000 </r>
       <r>    8.8229    0.0000 </r>
       <r>    8.8229    0.0000 </r>
       <r>    9.1886    0.0000 </r>
       <r>    9.1886    0.0000 </r>
       <r>   10.2466    0.0000 </r>
       <r>   10.2466    0.0000 </r>
       <r>   10.5069    0.0000 </r>
       <r>   10.5069    0.0000 </r>
       <r>   12.5900    0.0000 </r>
       <r>   12.5900    0.0000 </r>
       <r>   13.3134    0.0000 </r>
       <r>   13.3135    0.0000 </r>
       <r>   13.5040    0.0000 </r>
       <r>   13.5040    0.0000 </r>
       <r>   13.6555    0.0000 </r>
       <r>   13.6555    0.0000 </r>
       <r>   13.8152    0.0000 </r>
       <r>   13.8153    0.0000 </r>
       <r>   13.8693    0.0000 </r>
       <r>   13.8693    0.0000 </r>
       <r>   14.6694    0.0000 </r>
       <r>   14.6695    0.0000 </r>
       <r>   15.3739    0.0000 </r>
       <r>   15.3739    0.0000 </r>
       <r>   15.5611    0.0000 </r>
       <r>   15.5611    0.0000 </r>
       <r>   16.1771    0.0000 </r>
       <r>   16.1772    0.0000 </r>
       <r>   16.4486    0.0000 </r>
       <r>   16.4486    0.0000 </r>
       <r>   16.5577    0.0000 </r>
       <r>   16.5577    0.0000 </r>
       <r>   16.7988    0.0000 </r>
       <r>   16.7988    0.0000 </r>
       <r>   17.0376    0.0000 </r>
       <r>   17.0377    0.0000 </r>
       <r>   17.4404    0.0000 </r>
       <r>   17.4404    0.0000 </r>
       <r>   17.5198    0.0000 </r>
       <r>   17.5198    0.0000 </r>
       <r>   17.8787    0.0000 </r>
       <r>   17.8787    0.0000 </r>
       <r>   18.1205    0.0000 </r>
       <r>   18.1206    0.0000 </r>
       <r>   18.2935    0.0000 </r>
       <r>   18.2938    0.0000 </r>
       <r>   18.6079    0.0000 </r>
       <r>   18.6093    0.0000 </r>
       <r>   18.9895    0.0000 </r>
       <r>   18.9941    0.0000 </r>
       <r>   19.0922    0.0000 </r>
       <r>   19.1921    0.0000 </r>
      </set>
      <set comment="kpoint 9">
       <r>   -6.3876    1.0000 </r>
       <r>   -6.3876    1.0000 </r>
       <r>   -6.2197    1.0000 </r>
       <r>   -6.2197    1.0000 </r>
       <r>   -5.2016    1.0000 </r>
       <r>   -5.2016    1.0000 </r>
       <r>   -4.4873    1.0000 </r>
       <r>   -4.4873    1.0000 </r>
       <r>   -4.0742    1.0000 </r>
       <r>   -4.0742    1.0000 </r>
       <r>    0.8614    1.0000 </r>
       <r>    0.8614    1.0000 </r>
       <r>    1.2830    1.0000 </r>
       <r>    1.2830    1.0000 </r>
       <r>    1.9055    1.0000 </r>
       <r>    1.9056    1.0000 </r>
       <r>    2.3762    1.0000 </r>
       <r>    2.3762    1.0000 </r>
       <r>    2.6278    1.0000 </r>
       <r>    2.6279    1.0000 </r>
       <r>    3.1244    1.0000 </r>
       <r>    3.1244    1.0000 </r>
       <r>    4.0733    1.0000 </r>
       <r>    4.0733    1.0000 </r>
       <r>    4.7418    1.0000 </r>
       <r>    4.7418    1.0000 </r>
       <r>    4.8495    1.0000 </r>
       <r>    4.8495    1.0000 </r>
       <r>    6.0028    0.0000 </r>
       <r>    6.0028    0.0000 </r>
       <r>    6.8009    0.0000 </r>
       <r>    6.8009    0.0000 </r>
       <r>    7.1597    0.0000 </r>
       <r>    7.1597    0.0000 </r>
       <r>    7.9240    0.0000 </r>
       <r>    7.9241    0.0000 </r>
       <r>    8.8645    0.0000 </r>
       <r>    8.8645    0.0000 </r>
       <r>    9.1771    0.0000 </r>
       <r>    9.1771    0.0000 </r>
       <r>   10.2165    0.0000 </r>
       <r>   10.2165    0.0000 </r>
       <r>   10.4966    0.0000 </r>
       <r>   10.4966    0.0000 </r>
       <r>   12.4416    0.0000 </r>
       <r>   12.4417    0.0000 </r>
       <r>   13.2100    0.0000 </r>
       <r>   13.2101    0.0000 </r>
       <r>   13.3965    0.0000 </r>
       <r>   13.3965    0.0000 </r>
       <r>   13.6439    0.0000 </r>
       <r>   13.6439    0.0000 </r>
       <r>   13.7440    0.0000 </r>
       <r>   13.7440    0.0000 </r>
       <r>   13.8832    0.0000 </r>
       <r>   13.8832    0.0000 </r>
       <r>   14.5488    0.0000 </r>
       <r>   14.5488    0.0000 </r>
       <r>   15.2943    0.0000 </r>
       <r>   15.2943    0.0000 </r>
       <r>   15.4805    0.0000 </r>
       <r>   15.4805    0.0000 </r>
       <r>   16.1564    0.0000 </r>
       <r>   16.1564    0.0000 </r>
       <r>   16.3982    0.0000 </r>
       <r>   16.3982    0.0000 </r>
       <r>   16.4819    0.0000 </r>
       <r>   16.4819    0.0000 </r>
       <r>   16.7984    0.0000 </r>
       <r>   16.7984    0.0000 </r>
       <r>   17.1278    0.0000 </r>
       <r>   17.1279    0.0000 </r>
       <r>   17.5098    0.0000 </r>
       <r>   17.5099    0.0000 </r>
       <r>   17.7103    0.0000 </r>
       <r>   17.7104    0.0000 </r>
       <r>   17.8780    0.0000 </r>
       <r>   17.8782    0.0000 </r>
       <r>   18.1137    0.0000 </r>
       <r>   18.1138    0.0000 </r>
       <r>   18.1749    0.0000 </r>
       <r>   18.1750    0.0000 </r>
       <r>   18.5298    0.0000 </r>
       <r>   18.5320    0.0000 </r>
       <r>   18.7466    0.0000 </r>
       <r>   18.7507    0.0000 </r>
       <r>   19.1627    0.0000 </r>
       <r>   19.1950    0.0000 </r>
      </set>
      <set comment="kpoint 10">
       <r>   -6.4520    1.0000 </r>
       <r>   -6.4520    1.0000 </r>
       <r>   -6.2703    1.0000 </r>
       <r>   -6.2703    1.0000 </r>
       <r>   -5.1656    1.0000 </r>
       <r>   -5.1656    1.0000 </r>
       <r>   -4.4882    1.0000 </r>
       <r>   -4.4882    1.0000 </r>
       <r>   -3.9978    1.0000 </r>
       <r>   -3.9978    1.0000 </r>
       <r>    0.9125    1.0000 </r>
       <r>    0.9126    1.0000 </r>
       <r>    1.2995    1.0000 </r>
       <r>    1.2995    1.0000 </r>
       <r>    1.9549    1.0000 </r>
       <r>    1.9549    1.0000 </r>
       <r>    2.3638    1.0000 </r>
       <r>    2.3638    1.0000 </r>
       <r>    2.6743    1.0000 </r>
       <r>    2.6743    1.0000 </r>
       <r>    3.1132    1.0000 </r>
       <r>    3.1132    1.0000 </r>
       <r>    4.1199    1.0000 </r>
       <r>    4.1199    1.0000 </r>
       <r>    4.7698    1.0000 </r>
       <r>    4.7698    1.0000 </r>
       <r>    4.9004    1.0000 </r>
       <r>    4.9004    1.0000 </r>
       <r>    5.9605    0.0000 </r>
       <r>    5.9605    0.0000 </r>
       <r>    6.7912    0.0000 </r>
       <r>    6.7912    0.0000 </r>
       <r>    7.1334    0.0000 </r>
       <r>    7.1334    0.0000 </r>
       <r>    7.9297    0.0000 </r>
       <r>    7.9297    0.0000 </r>
       <r>    8.9039    0.0000 </r>
       <r>    8.9039    0.0000 </r>
       <r>    9.1668    0.0000 </r>
       <r>    9.1668    0.0000 </r>
       <r>   10.1789    0.0000 </r>
       <r>   10.1789    0.0000 </r>
       <r>   10.4889    0.0000 </r>
       <r>   10.4889    0.0000 </r>
       <r>   12.2944    0.0000 </r>
       <r>   12.2944    0.0000 </r>
       <r>   13.0912    0.0000 </r>
       <r>   13.0912    0.0000 </r>
       <r>   13.2873    0.0000 </r>
       <r>   13.2873    0.0000 </r>
       <r>   13.5442    0.0000 </r>
       <r>   13.5442    0.0000 </r>
       <r>   13.6675    0.0000 </r>
       <r>   13.6676    0.0000 </r>
       <r>   14.0244    0.0000 </r>
       <r>   14.0244    0.0000 </r>
       <r>   14.4341    0.0000 </r>
       <r>   14.4341    0.0000 </r>
       <r>   15.1909    0.0000 </r>
       <r>   15.1909    0.0000 </r>
       <r>   15.3939    0.0000 </r>
       <r>   15.3939    0.0000 </r>
       <r>   16.1098    0.0000 </r>
       <r>   16.1098    0.0000 </r>
       <r>   16.3477    0.0000 </r>
       <r>   16.3477    0.0000 </r>
       <r>   16.4071    0.0000 </r>
       <r>   16.4071    0.0000 </r>
       <r>   16.7821    0.0000 </r>
       <r>   16.7821    0.0000 </r>
       <r>   17.1451    0.0000 </r>
       <r>   17.1451    0.0000 </r>
       <r>   17.5795    0.0000 </r>
       <r>   17.5795    0.0000 </r>
       <r>   17.8055    0.0000 </r>
       <r>   17.8055    0.0000 </r>
       <r>   17.8951    0.0000 </r>
       <r>   17.8952    0.0000 </r>
       <r>   18.0647    0.0000 </r>
       <r>   18.0648    0.0000 </r>
       <r>   18.2411    0.0000 </r>
       <r>   18.2412    0.0000 </r>
       <r>   18.4880    0.0000 </r>
       <r>   18.4896    0.0000 </r>
       <r>   18.5397    0.0000 </r>
       <r>   18.5433    0.0000 </r>
       <r>   19.1579    0.0000 </r>
       <r>   19.1840    0.0000 </r>
      </set>
      <set comment="kpoint 11">
       <r>   -6.5179    1.0000 </r>
       <r>   -6.5179    1.0000 </r>
       <r>   -6.3181    1.0000 </r>
       <r>   -6.3181    1.0000 </r>
       <r>   -5.1381    1.0000 </r>
       <r>   -5.1381    1.0000 </r>
       <r>   -4.4844    1.0000 </r>
       <r>   -4.4844    1.0000 </r>
       <r>   -3.9190    1.0000 </r>
       <r>   -3.9190    1.0000 </r>
       <r>    0.9654    1.0000 </r>
       <r>    0.9654    1.0000 </r>
       <r>    1.3233    1.0000 </r>
       <r>    1.3233    1.0000 </r>
       <r>    2.0025    1.0000 </r>
       <r>    2.0025    1.0000 </r>
       <r>    2.3573    1.0000 </r>
       <r>    2.3574    1.0000 </r>
       <r>    2.7246    1.0000 </r>
       <r>    2.7246    1.0000 </r>
       <r>    3.1052    1.0000 </r>
       <r>    3.1052    1.0000 </r>
       <r>    4.1664    1.0000 </r>
       <r>    4.1664    1.0000 </r>
       <r>    4.7954    1.0000 </r>
       <r>    4.7954    1.0000 </r>
       <r>    4.9510    1.0000 </r>
       <r>    4.9511    1.0000 </r>
       <r>    5.9190    0.0000 </r>
       <r>    5.9190    0.0000 </r>
       <r>    6.7833    0.0000 </r>
       <r>    6.7833    0.0000 </r>
       <r>    7.1113    0.0000 </r>
       <r>    7.1114    0.0000 </r>
       <r>    7.9307    0.0000 </r>
       <r>    7.9307    0.0000 </r>
       <r>    8.9360    0.0000 </r>
       <r>    8.9361    0.0000 </r>
       <r>    9.1625    0.0000 </r>
       <r>    9.1625    0.0000 </r>
       <r>   10.1320    0.0000 </r>
       <r>   10.1320    0.0000 </r>
       <r>   10.4842    0.0000 </r>
       <r>   10.4842    0.0000 </r>
       <r>   12.1504    0.0000 </r>
       <r>   12.1504    0.0000 </r>
       <r>   12.9701    0.0000 </r>
       <r>   12.9702    0.0000 </r>
       <r>   13.1759    0.0000 </r>
       <r>   13.1759    0.0000 </r>
       <r>   13.4433    0.0000 </r>
       <r>   13.4433    0.0000 </r>
       <r>   13.5938    0.0000 </r>
       <r>   13.5938    0.0000 </r>
       <r>   14.1821    0.0000 </r>
       <r>   14.1821    0.0000 </r>
       <r>   14.3296    0.0000 </r>
       <r>   14.3296    0.0000 </r>
       <r>   15.0647    0.0000 </r>
       <r>   15.0647    0.0000 </r>
       <r>   15.3164    0.0000 </r>
       <r>   15.3164    0.0000 </r>
       <r>   16.0386    0.0000 </r>
       <r>   16.0387    0.0000 </r>
       <r>   16.2728    0.0000 </r>
       <r>   16.2728    0.0000 </r>
       <r>   16.3533    0.0000 </r>
       <r>   16.3533    0.0000 </r>
       <r>   16.7466    0.0000 </r>
       <r>   16.7466    0.0000 </r>
       <r>   17.0837    0.0000 </r>
       <r>   17.0837    0.0000 </r>
       <r>   17.5662    0.0000 </r>
       <r>   17.5662    0.0000 </r>
       <r>   17.7930    0.0000 </r>
       <r>   17.7930    0.0000 </r>
       <r>   17.9548    0.0000 </r>
       <r>   17.9549    0.0000 </r>
       <r>   18.1309    0.0000 </r>
       <r>   18.1309    0.0000 </r>
       <r>   18.2263    0.0000 </r>
       <r>   18.2264    0.0000 </r>
       <r>   18.4384    0.0000 </r>
       <r>   18.4387    0.0000 </r>
       <r>   18.5935    0.0000 </r>
       <r>   18.5950    0.0000 </r>
       <r>   19.1270    0.0000 </r>
       <r>   19.1322    0.0000 </r>
      </set>
      <set comment="kpoint 12">
       <r>   -6.5845    1.0000 </r>
       <r>   -6.5845    1.0000 </r>
       <r>   -6.3634    1.0000 </r>
       <r>   -6.3634    1.0000 </r>
       <r>   -5.1207    1.0000 </r>
       <r>   -5.1207    1.0000 </r>
       <r>   -4.4733    1.0000 </r>
       <r>   -4.4733    1.0000 </r>
       <r>   -3.8394    1.0000 </r>
       <r>   -3.8394    1.0000 </r>
       <r>    1.0193    1.0000 </r>
       <r>    1.0193    1.0000 </r>
       <r>    1.3546    1.0000 </r>
       <r>    1.3546    1.0000 </r>
       <r>    2.0462    1.0000 </r>
       <r>    2.0463    1.0000 </r>
       <r>    2.3595    1.0000 </r>
       <r>    2.3595    1.0000 </r>
       <r>    2.7780    1.0000 </r>
       <r>    2.7780    1.0000 </r>
       <r>    3.1010    1.0000 </r>
       <r>    3.1010    1.0000 </r>
       <r>    4.2122    1.0000 </r>
       <r>    4.2122    1.0000 </r>
       <r>    4.8183    1.0000 </r>
       <r>    4.8183    1.0000 </r>
       <r>    5.0009    1.0000 </r>
       <r>    5.0009    1.0000 </r>
       <r>    5.8785    0.0000 </r>
       <r>    5.8785    0.0000 </r>
       <r>    6.7772    0.0000 </r>
       <r>    6.7772    0.0000 </r>
       <r>    7.0941    0.0000 </r>
       <r>    7.0941    0.0000 </r>
       <r>    7.9265    0.0000 </r>
       <r>    7.9265    0.0000 </r>
       <r>    8.9542    0.0000 </r>
       <r>    8.9542    0.0000 </r>
       <r>    9.1707    0.0000 </r>
       <r>    9.1707    0.0000 </r>
       <r>   10.0750    0.0000 </r>
       <r>   10.0750    0.0000 </r>
       <r>   10.4830    0.0000 </r>
       <r>   10.4830    0.0000 </r>
       <r>   12.0107    0.0000 </r>
       <r>   12.0108    0.0000 </r>
       <r>   12.8501    0.0000 </r>
       <r>   12.8502    0.0000 </r>
       <r>   13.0621    0.0000 </r>
       <r>   13.0621    0.0000 </r>
       <r>   13.3510    0.0000 </r>
       <r>   13.3510    0.0000 </r>
       <r>   13.5287    0.0000 </r>
       <r>   13.5287    0.0000 </r>
       <r>   14.2155    0.0000 </r>
       <r>   14.2155    0.0000 </r>
       <r>   14.3561    0.0000 </r>
       <r>   14.3561    0.0000 </r>
       <r>   14.9249    0.0000 </r>
       <r>   14.9249    0.0000 </r>
       <r>   15.2479    0.0000 </r>
       <r>   15.2480    0.0000 </r>
       <r>   15.9542    0.0000 </r>
       <r>   15.9542    0.0000 </r>
       <r>   16.1848    0.0000 </r>
       <r>   16.1849    0.0000 </r>
       <r>   16.3005    0.0000 </r>
       <r>   16.3005    0.0000 </r>
       <r>   16.6848    0.0000 </r>
       <r>   16.6848    0.0000 </r>
       <r>   16.9872    0.0000 </r>
       <r>   16.9872    0.0000 </r>
       <r>   17.4301    0.0000 </r>
       <r>   17.4301    0.0000 </r>
       <r>   17.7880    0.0000 </r>
       <r>   17.7880    0.0000 </r>
       <r>   17.9558    0.0000 </r>
       <r>   17.9558    0.0000 </r>
       <r>   18.0501    0.0000 </r>
       <r>   18.0501    0.0000 </r>
       <r>   18.3412    0.0000 </r>
       <r>   18.3414    0.0000 </r>
       <r>   18.5963    0.0000 </r>
       <r>   18.5969    0.0000 </r>
       <r>   18.7198    0.0000 </r>
       <r>   18.7202    0.0000 </r>
       <r>   19.1282    0.0000 </r>
[...]
       <r>    13.8022     0.0000     0.0000 </r>
       <r>    13.9083     0.0000     0.0000 </r>
       <r>    14.0144     0.0000     0.0000 </r>
       <r>    14.1205     0.0000     0.0000 </r>
       <r>    14.2266     0.0000     0.0000 </r>
       <r>    14.3327     0.0000     0.0000 </r>
       <r>    14.4388     0.0000     0.0000 </r>
       <r>    14.5449     0.0000     0.0000 </r>
       <r>    14.6510     0.0000     0.0000 </r>
       <r>    14.7572     0.0000     0.0000 </r>
       <r>    14.8633     0.0000     0.0000 </r>
       <r>    14.9694     0.0000     0.0000 </r>
       <r>    15.0755     0.0000     0.0000 </r>
       <r>    15.1816     0.0000     0.0000 </r>
       <r>    15.2877     0.0000     0.0000 </r>
       <r>    15.3938     0.0000     0.0000 </r>
       <r>    15.4999     0.0000     0.0000 </r>
       <r>    15.6060     0.0000     0.0000 </r>
       <r>    15.7121     0.0000     0.0000 </r>
       <r>    15.8183     0.0000     0.0000 </r>
       <r>    15.9244     0.0000     0.0000 </r>
       <r>    16.0305     0.0000     0.0000 </r>
       <r>    16.1366     0.0000     0.0000 </r>
       <r>    16.2427     0.0000     0.0000 </r>
       <r>    16.3488     0.0000     0.0000 </r>
       <r>    16.4549     0.0000     0.0000 </r>
       <r>    16.5610     0.0000     0.0000 </r>
       <r>    16.6671     0.0000     0.0000 </r>
       <r>    16.7732     0.0000     0.0000 </r>
       <r>    16.8794     0.0000     0.0000 </r>
       <r>    16.9855     0.0000     0.0000 </r>
       <r>    17.0916     0.0000     0.0000 </r>
       <r>    17.1977     0.0000     0.0000 </r>
       <r>    17.3038     0.0000     0.0000 </r>
       <r>    17.4099     0.0000     0.0000 </r>
       <r>    17.5160     0.0000     0.0000 </r>
       <r>    17.6221     0.0000     0.0000 </r>
       <r>    17.7282     0.0000     0.0000 </r>
       <r>    17.8343     0.0000     0.0000 </r>
       <r>    17.9404     0.0000     0.0000 </r>
       <r>    18.0466     0.0000     0.0000 </r>
       <r>    18.1527     0.0000     0.0000 </r>
       <r>    18.2588     0.0000     0.0000 </r>
       <r>    18.3649     0.0000     0.0000 </r>
       <r>    18.4710     0.0000     0.0000 </r>
       <r>    18.5771     0.0000     0.0000 </r>
       <r>    18.6832     0.0000     0.0000 </r>
       <r>    18.7893     0.0000     0.0000 </r>
       <r>    18.8954     0.0000     0.0000 </r>
       <r>    19.0015     0.0000     0.0000 </r>
       <r>    19.1077     0.0000     0.0000 </r>
       <r>    19.2138     0.0000     0.0000 </r>
       <r>    19.3199     0.0000     0.0000 </r>
       <r>    19.4260     0.0000     0.0000 </r>
       <r>    19.5321     0.0000     0.0000 </r>
       <r>    19.6382     0.0000     0.0000 </r>
       <r>    19.7443     0.0000     0.0000 </r>
       <r>    19.8504     0.0000     0.0000 </r>
       <r>    19.9565     0.0000     0.0000 </r>
       <r>    20.0626     0.0000     0.0000 </r>
       <r>    20.1688     0.0000     0.0000 </r>
       <r>    20.2749     0.0000     0.0000 </r>
       <r>    20.3810     0.0000     0.0000 </r>
       <r>    20.4871     0.0000     0.0000 </r>
       <r>    20.5932     0.0000     0.0000 </r>
       <r>    20.6993     0.0000     0.0000 </r>
       <r>    20.8054     0.0000     0.0000 </r>
       <r>    20.9115     0.0000     0.0000 </r>
       <r>    21.0176     0.0000     0.0000 </r>
       <r>    21.1237     0.0000     0.0000 </r>
       <r>    21.2298     0.0000     0.0000 </r>
       <r>    21.3360     0.0000     0.0000 </r>
       <r>    21.4421     0.0000     0.0000 </r>
       <r>    21.5482     0.0000     0.0000 </r>
       <r>    21.6543     0.0000     0.0000 </r>
       <r>    21.7604     0.0000     0.0000 </r>
       <r>    21.8665     0.0000     0.0000 </r>
       <r>    21.9726     0.0000     0.0000 </r>
       <r>    22.0787     0.0000     0.0000 </r>
       <r>    22.1848     0.0000     0.0000 </r>
       <r>    22.2909     0.0000     0.0000 </r>
       <r>    22.3971     0.0000     0.0000 </r>
       <r>    22.5032     0.0000     0.0000 </r>
       <r>    22.6093     0.0000     0.0000 </r>
       <r>    22.7154     0.0000     0.0000 </r>
      </set>
      <set comment="spin 4">
       <r>    -9.1175     0.0000     0.0000 </r>
       <r>    -9.0114     0.0000     0.0000 </r>
       <r>    -8.9053     0.0000     0.0000 </r>
       <r>    -8.7992     0.0000     0.0000 </r>
       <r>    -8.6931     0.0000     0.0000 </r>
       <r>    -8.5870     0.0000     0.0000 </r>
       <r>    -8.4809     0.0000     0.0000 </r>
       <r>    -8.3747     0.0000     0.0000 </r>
       <r>    -8.2686     0.0000     0.0000 </r>
       <r>    -8.1625     0.0000     0.0000 </r>
       <r>    -8.0564     0.0000     0.0000 </r>
       <r>    -7.9503     0.0000     0.0000 </r>
       <r>    -7.8442     0.0000     0.0000 </r>
       <r>    -7.7381     0.0000     0.0000 </r>
       <r>    -7.6320     0.0000     0.0000 </r>
       <r>    -7.5259     0.0000     0.0000 </r>
       <r>    -7.4198     0.0000     0.0000 </r>
       <r>    -7.3136     0.0000     0.0000 </r>
       <r>    -7.2075     0.0000     0.0000 </r>
       <r>    -7.1014     0.0000     0.0000 </r>
       <r>    -6.9953     0.0000     0.0000 </r>
       <r>    -6.8892     0.0000     0.0000 </r>
       <r>    -6.7831     0.0000     0.0000 </r>
       <r>    -6.6770     0.0000     0.0000 </r>
       <r>    -6.5709     0.0000     0.0000 </r>
       <r>    -6.4648     0.0000     0.0000 </r>
       <r>    -6.3587     0.0000     0.0000 </r>
       <r>    -6.2526     0.0000     0.0000 </r>
       <r>    -6.1464     0.0000     0.0000 </r>
       <r>    -6.0403     0.0000     0.0000 </r>
       <r>    -5.9342     0.0000     0.0000 </r>
       <r>    -5.8281     0.0000     0.0000 </r>
       <r>    -5.7220     0.0000     0.0000 </r>
       <r>    -5.6159     0.0000     0.0000 </r>
       <r>    -5.5098     0.0000     0.0000 </r>
       <r>    -5.4037     0.0000     0.0000 </r>
       <r>    -5.2976     0.0000     0.0000 </r>
       <r>    -5.1915     0.0000     0.0000 </r>
       <r>    -5.0853     0.0000     0.0000 </r>
       <r>    -4.9792     0.0000     0.0000 </r>
       <r>    -4.8731     0.0000     0.0000 </r>
       <r>    -4.7670     0.0000     0.0000 </r>
       <r>    -4.6609     0.0000     0.0000 </r>
       <r>    -4.5548     0.0000     0.0000 </r>
       <r>    -4.4487     0.0000     0.0000 </r>
       <r>    -4.3426     0.0000     0.0000 </r>
       <r>    -4.2365     0.0000     0.0000 </r>
       <r>    -4.1304     0.0000     0.0000 </r>
       <r>    -4.0243     0.0000     0.0000 </r>
       <r>    -3.9181     0.0000     0.0000 </r>
       <r>    -3.8120     0.0000     0.0000 </r>
       <r>    -3.7059     0.0000     0.0000 </r>
       <r>    -3.5998     0.0000     0.0000 </r>
       <r>    -3.4937     0.0000     0.0000 </r>
       <r>    -3.3876     0.0000     0.0000 </r>
       <r>    -3.2815     0.0000     0.0000 </r>
       <r>    -3.1754     0.0000     0.0000 </r>
       <r>    -3.0693     0.0000     0.0000 </r>
       <r>    -2.9632     0.0000     0.0000 </r>
       <r>    -2.8570     0.0000     0.0000 </r>
       <r>    -2.7509     0.0000     0.0000 </r>
       <r>    -2.6448     0.0000     0.0000 </r>
       <r>    -2.5387     0.0000     0.0000 </r>
       <r>    -2.4326     0.0000     0.0000 </r>
       <r>    -2.3265     0.0000     0.0000 </r>
       <r>    -2.2204     0.0000     0.0000 </r>
       <r>    -2.1143     0.0000     0.0000 </r>
       <r>    -2.0082     0.0000     0.0000 </r>
       <r>    -1.9021     0.0000     0.0000 </r>
       <r>    -1.7959     0.0000     0.0000 </r>
       <r>    -1.6898     0.0000     0.0000 </r>
       <r>    -1.5837     0.0000     0.0000 </r>
       <r>    -1.4776     0.0000     0.0000 </r>
       <r>    -1.3715     0.0000     0.0000 </r>
       <r>    -1.2654     0.0000     0.0000 </r>
       <r>    -1.1593     0.0000     0.0000 </r>
       <r>    -1.0532     0.0000     0.0000 </r>
       <r>    -0.9471     0.0000     0.0000 </r>
       <r>    -0.8410     0.0000     0.0000 </r>
       <r>    -0.7349     0.0000     0.0000 </r>
       <r>    -0.6287     0.0000     0.0000 </r>
       <r>    -0.5226     0.0000     0.0000 </r>
       <r>    -0.4165     0.0000     0.0000 </r>
       <r>    -0.3104     0.0000     0.0000 </r>
       <r>    -0.2043     0.0000     0.0000 </r>
       <r>    -0.0982     0.0000     0.0000 </r>
       <r>     0.0079     0.0000     0.0000 </r>
       <r>     0.1140     0.0000     0.0000 </r>
       <r>     0.2201     0.0000     0.0000 </r>
       <r>     0.3262     0.0000     0.0000 </r>
       <r>     0.4324     0.0000     0.0000 </r>
       <r>     0.5385     0.0000     0.0000 </r>
       <r>     0.6446     0.0000     0.0000 </r>
       <r>     0.7507     0.0000     0.0000 </r>
       <r>     0.8568     0.0000     0.0000 </r>
       <r>     0.9629     0.0000     0.0000 </r>
       <r>     1.0690     0.0000     0.0000 </r>
       <r>     1.1751     0.0000     0.0000 </r>
       <r>     1.2812     0.0000     0.0000 </r>
       <r>     1.3873     0.0000     0.0000 </r>
       <r>     1.4935     0.0000     0.0000 </r>
       <r>     1.5996     0.0000     0.0000 </r>
       <r>     1.7057     0.0000     0.0000 </r>
       <r>     1.8118     0.0000     0.0000 </r>
       <r>     1.9179     0.0000     0.0000 </r>
       <r>     2.0240     0.0000     0.0000 </r>
       <r>     2.1301     0.0000     0.0000 </r>
       <r>     2.2362     0.0000     0.0000 </r>
       <r>     2.3423     0.0000     0.0000 </r>
       <r>     2.4484     0.0000     0.0000 </r>
       <r>     2.5545     0.0000     0.0000 </r>
       <r>     2.6607     0.0000     0.0000 </r>
       <r>     2.7668     0.0000     0.0000 </r>
       <r>     2.8729     0.0000     0.0000 </r>
       <r>     2.9790     0.0000     0.0000 </r>
       <r>     3.0851     0.0000     0.0000 </r>
       <r>     3.1912     0.0000     0.0000 </r>
       <r>     3.2973     0.0000     0.0000 </r>
       <r>     3.4034     0.0000     0.0000 </r>
       <r>     3.5095     0.0000     0.0000 </r>
       <r>     3.6156     0.0000     0.0000 </r>
       <r>     3.7218     0.0000     0.0000 </r>
       <r>     3.8279     0.0000     0.0000 </r>
       <r>     3.9340     0.0000     0.0000 </r>
       <r>     4.0401     0.0000     0.0000 </r>
       <r>     4.1462     0.0000     0.0000 </r>
       <r>     4.2523     0.0000     0.0000 </r>
       <r>     4.3584     0.0000     0.0000 </r>
       <r>     4.4645     0.0000     0.0000 </r>
       <r>     4.5706     0.0000     0.0000 </r>
       <r>     4.6767     0.0000     0.0000 </r>
       <r>     4.7829     0.0000     0.0000 </r>
       <r>     4.8890     0.0000     0.0000 </r>
       <r>     4.9951     0.0000     0.0000 </r>
       <r>     5.1012     0.0000     0.0000 </r>
       <r>     5.2073     0.0000     0.0000 </r>
       <r>     5.3134     0.0000     0.0000 </r>
       <r>     5.4195     0.0000     0.0000 </r>
       <r>     5.5256     0.0000     0.0000 </r>
       <r>     5.6317     0.0000     0.0000 </r>
       <r>     5.7378     0.0000     0.0000 </r>
       <r>     5.8439     0.0000     0.0000 </r>
       <r>     5.9501     0.0000     0.0000 </r>
       <r>     6.0562     0.0000     0.0000 </r>
       <r>     6.1623     0.0000     0.0000 </r>
       <r>     6.2684     0.0000     0.0000 </r>
       <r>     6.3745     0.0000     0.0000 </r>
       <r>     6.4806     0.0000     0.0000 </r>
       <r>     6.5867     0.0000     0.0000 </r>
       <r>     6.6928     0.0000     0.0000 </r>
       <r>     6.7989     0.0000     0.0000 </r>
       <r>     6.9050     0.0000     0.0000 </r>
       <r>     7.0112     0.0000     0.0000 </r>
       <r>     7.1173     0.0000     0.0000 </r>
       <r>     7.2234     0.0000     0.0000 </r>
       <r>     7.3295     0.0000     0.0000 </r>
       <r>     7.4356     0.0000     0.0000 </r>
       <r>     7.5417     0.0000     0.0000 </r>
       <r>     7.6478     0.0000     0.0000 </r>
       <r>     7.7539     0.0000     0.0000 </r>
       <r>     7.8600     0.0000     0.0000 </r>
       <r>     7.9661     0.0000     0.0000 </r>
       <r>     8.0722     0.0000     0.0000 </r>
       <r>     8.1784     0.0000     0.0000 </r>
       <r>     8.2845     0.0000     0.0000 </r>
       <r>     8.3906     0.0000     0.0000 </r>
       <r>     8.4967     0.0000     0.0000 </r>
       <r>     8.6028     0.0000     0.0000 </r>
       <r>     8.7089     0.0000     0.0000 </r>
       <r>     8.8150     0.0000     0.0000 </r>
       <r>     8.9211     0.0000     0.0000 </r>
       <r>     9.0272     0.0000     0.0000 </r>
       <r>     9.1333     0.0000     0.0000 </r>
       <r>     9.2395     0.0000     0.0000 </r>
       <r>     9.3456     0.0000     0.0000 </r>
       <r>     9.4517     0.0000     0.0000 </r>
       <r>     9.5578     0.0000     0.0000 </r>
       <r>     9.6639     0.0000     0.0000 </r>
       <r>     9.7700     0.0000     0.0000 </r>
       <r>     9.8761     0.0000     0.0000 </r>
       <r>     9.9822     0.0000     0.0000 </r>
       <r>    10.0883     0.0000     0.0000 </r>
       <r>    10.1944     0.0000     0.0000 </r>
       <r>    10.3006     0.0000     0.0000 </r>
       <r>    10.4067     0.0000     0.0000 </r>
       <r>    10.5128     0.0000     0.0000 </r>
       <r>    10.6189     0.0000     0.0000 </r>
       <r>    10.7250     0.0000     0.0000 </r>
       <r>    10.8311     0.0000     0.0000 </r>
       <r>    10.9372     0.0000     0.0000 </r>
       <r>    11.0433     0.0000     0.0000 </r>
       <r>    11.1494     0.0000     0.0000 </r>
       <r>    11.2555     0.0000     0.0000 </r>
       <r>    11.3616     0.0000     0.0000 </r>
       <r>    11.4678     0.0000     0.0000 </r>
       <r>    11.5739     0.0000     0.0000 </r>
       <r>    11.6800     0.0000     0.0000 </r>
       <r>    11.7861     0.0000     0.0000 </r>
       <r>    11.8922     0.0000     0.0000 </r>
       <r>    11.9983     0.0000     0.0000 </r>
       <r>    12.1044     0.0000     0.0000 </r>
       <r>    12.2105     0.0000     0.0000 </r>
       <r>    12.3166     0.0000     0.0000 </r>
       <r>    12.4227     0.0000     0.0000 </r>
       <r>    12.5289     0.0000     0.0000 </r>
       <r>    12.6350     0.0000     0.0000 </r>
       <r>    12.7411     0.0000     0.0000 </r>
       <r>    12.8472     0.0000     0.0000 </r>
       <r>    12.9533     0.0000     0.0000 </r>
       <r>    13.0594     0.0000     0.0000 </r>
       <r>    13.1655     0.0000     0.0000 </r>
       <r>    13.2716     0.0000     0.0000 </r>
       <r>    13.3777     0.0000     0.0000 </r>
       <r>    13.4838     0.0000     0.0000 </r>
       <r>    13.5900     0.0000     0.0000 </r>
       <r>    13.6961     0.0000     0.0000 </r>
       <r>    13.8022     0.0000     0.0000 </r>
       <r>    13.9083     0.0000     0.0000 </r>
       <r>    14.0144     0.0000     0.0000 </r>
       <r>    14.1205     0.0000     0.0000 </r>
       <r>    14.2266     0.0000     0.0000 </r>
       <r>    14.3327     0.0000     0.0000 </r>
       <r>    14.4388     0.0000     0.0000 </r>
       <r>    14.5449     0.0000     0.0000 </r>
       <r>    14.6510     0.0000     0.0000 </r>
       <r>    14.7572     0.0000     0.0000 </r>
       <r>    14.8633     0.0000     0.0000 </r>
       <r>    14.9694     0.0000     0.0000 </r>
       <r>    15.0755     0.0000     0.0000 </r>
       <r>    15.1816     0.0000     0.0000 </r>
       <r>    15.2877     0.0000     0.0000 </r>
       <r>    15.3938     0.0000     0.0000 </r>
       <r>    15.4999     0.0000     0.0000 </r>
       <r>    15.6060     0.0000     0.0000 </r>
       <r>    15.7121     0.0000     0.0000 </r>
       <r>    15.8183     0.0000     0.0000 </r>
       <r>    15.9244     0.0000     0.0000 </r>
       <r>    16.0305     0.0000     0.0000 </r>
       <r>    16.1366     0.0000     0.0000 </r>
       <r>    16.2427     0.0000     0.0000 </r>
       <r>    16.3488     0.0000     0.0000 </r>
       <r>    16.4549     0.0000     0.0000 </r>
       <r>    16.5610     0.0000     0.0000 </r>
       <r>    16.6671     0.0000     0.0000 </r>
       <r>    16.7732     0.0000     0.0000 </r>
       <r>    16.8794     0.0000     0.0000 </r>
       <r>    16.9855     0.0000     0.0000 </r>
       <r>    17.0916     0.0000     0.0000 </r>
       <r>    17.1977     0.0000     0.0000 </r>
       <r>    17.3038     0.0000     0.0000 </r>
       <r>    17.4099     0.0000     0.0000 </r>
       <r>    17.5160     0.0000     0.0000 </r>
       <r>    17.6221     0.0000     0.0000 </r>
       <r>    17.7282     0.0000     0.0000 </r>
       <r>    17.8343     0.0000     0.0000 </r>
       <r>    17.9404     0.0000     0.0000 </r>
       <r>    18.0466     0.0000     0.0000 </r>
       <r>    18.1527     0.0000     0.0000 </r>
       <r>    18.2588     0.0000     0.0000 </r>
       <r>    18.3649     0.0000     0.0000 </r>
       <r>    18.4710     0.0000     0.0000 </r>
       <r>    18.5771     0.0000     0.0000 </r>
       <r>    18.6832     0.0000     0.0000 </r>
       <r>    18.7893     0.0000     0.0000 </r>
       <r>    18.8954     0.0000     0.0000 </r>
       <r>    19.0015     0.0000     0.0000 </r>
       <r>    19.1077     0.0000     0.0000 </r>
       <r>    19.2138     0.0000     0.0000 </r>
       <r>    19.3199     0.0000     0.0000 </r>
       <r>    19.4260     0.0000     0.0000 </r>
       <r>    19.5321     0.0000     0.0000 </r>
       <r>    19.6382     0.0000     0.0000 </r>
       <r>    19.7443     0.0000     0.0000 </r>
       <r>    19.8504     0.0000     0.0000 </r>
       <r>    19.9565     0.0000     0.0000 </r>
       <r>    20.0626     0.0000     0.0000 </r>
       <r>    20.1688     0.0000     0.0000 </r>
       <r>    20.2749     0.0000     0.0000 </r>
       <r>    20.3810     0.0000     0.0000 </r>
       <r>    20.4871     0.0000     0.0000 </r>
       <r>    20.5932     0.0000     0.0000 </r>
       <r>    20.6993     0.0000     0.0000 </r>
       <r>    20.8054     0.0000     0.0000 </r>
       <r>    20.9115     0.0000     0.0000 </r>
       <r>    21.0176     0.0000     0.0000 </r>
       <r>    21.1237     0.0000     0.0000 </r>
       <r>    21.2298     0.0000     0.0000 </r>
       <r>    21.3360     0.0000     0.0000 </r>
       <r>    21.4421     0.0000     0.0000 </r>
       <r>    21.5482     0.0000     0.0000 </r>
       <r>    21.6543     0.0000     0.0000 </r>
       <r>    21.7604     0.0000     0.0000 </r>
       <r>    21.8665     0.0000     0.0000 </r>
       <r>    21.9726     0.0000     0.0000 </r>
       <r>    22.0787     0.0000     0.0000 </r>
       <r>    22.1848     0.0000     0.0000 </r>
       <r>    22.2909     0.0000     0.0000 </r>
       <r>    22.3971     0.0000     0.0000 </r>
       <r>    22.5032     0.0000     0.0000 </r>
       <r>    22.6093     0.0000     0.0000 </r>
       <r>    22.7154     0.0000     0.0000 </r>
      </set>
     </set>
    </array>
   </total>
  </dos>
 </calculation>
 <structure name="finalpos" >
  <crystal>
   <varray name="basis" >
    <v>      10.24350399      -2.21767379       0.00000000 </v>
    <v>      10.24350399       2.21767379       0.00000000 </v>
    <v>       9.76338731       0.00000000       3.81099975 </v>
   </varray>
   <i name="volume">    173.14705979 </i>
   <varray name="rec_basis" >
    <v>       0.04881142      -0.22546147      -0.12504982 </v>
    <v>       0.04881142       0.22546147      -0.12504982 </v>
    <v>      -0.00000000       0.00000000       0.26239834 </v>
   </varray>
  </crystal>
  <varray name="positions" >
   <v>       0.39969707       0.39969707       0.39969707 </v>
   <v>       0.60030293       0.60030293       0.60030293 </v>
   <v>       0.00000000       0.00000000       0.00000000 </v>
   <v>       0.21071601       0.21071601       0.21071601 </v>
   <v>       0.78928399       0.78928399       0.78928399 </v>
  </varray>
 </structure>
</modeling>
