    4    4    1    1
  0.2679476E+02  0.6282271E-09  0.6282271E-09  0.4247393E-09  0.5000000E-15
   1.0000000000000000E-004
  CAR 
 SnSe                                    
     40     61     48

 -0.5000000E+00  0.5000000E+00  0.3378378E+00  0.1639344E-01
    1      -15.572178   1.000000
    2      -15.572152   1.000000
    3      -15.539997   1.000000
    4      -15.525663   1.000000
    5      -15.431519   1.000000
    6      -15.426232   1.000000
    7      -15.361108   1.000000
    8      -15.351714   1.000000
    9      -15.349022   1.000000
   10      -15.336765   1.000000
   11       -8.203728   1.000000
   12       -7.810147   1.000000
   13       -2.216961   1.000000
   14       -1.500423   1.000000
   15        2.293061   1.000000
   16        2.924267   1.000000
   17        3.078839   1.000000
   18        3.269964   1.000000
   19        4.164272   1.000000
   20        5.426832   1.000000
   21        5.706241   0.000000
   22        6.646645   0.000000
   23        7.814732   0.000000
   24        8.687246   0.000000
   25        8.704254   0.000000
   26        9.168684   0.000000
   27       12.277289   0.000000
   28       12.416709   0.000000
   29       12.731570   0.000000
   30       13.550999   0.000000
   31       14.125746   0.000000
   32       14.594875   0.000000
   33       16.553544   0.000000
   34       18.214736   0.000000
   35       18.217962   0.000000
   36       19.173073   0.000000
   37       19.788093   0.000000
   38       20.009438   0.000000
   39       20.353103   0.000000
   40       21.562804   0.000000
   41       21.911695   0.000000
   42       22.577215   0.000000
   43       22.816213   0.000000
   44       22.853466   0.000000
   45       23.392923   0.000000
   46       23.557378   0.000000
   47       24.154214   0.000000
   48       24.217311   0.000000

 -0.5128456E+00  0.4871544E+00  0.3378378E+00  0.1639344E-01
    1      -15.572155   1.000000
    2      -15.572153   1.000000
    3      -15.540014   1.000000
    4      -15.525658   1.000000
    5      -15.431617   1.000000
    6      -15.426334   1.000000
    7      -15.361128   1.000000
    8      -15.351608   1.000000
    9      -15.349054   1.000000
   10      -15.336679   1.000000
   11       -8.201475   1.000000
   12       -7.809003   1.000000
   13       -2.214061   1.000000
   14       -1.496925   1.000000
   15        2.220157   1.000000
   16        2.986744   1.000000
   17        3.077807   1.000000
   18        3.238494   1.000000
   19        4.172782   1.000000
   20        5.387324   1.000000
   21        5.746014   0.000000
   22        6.641393   0.000000
   23        7.841577   0.000000
   24        8.437667   0.000000
   25        8.965849   0.000000
   26        9.188563   0.000000
   27       12.110744   0.000000
   28       12.518405   0.000000
   29       12.830496   0.000000
   30       13.486308   0.000000
   31       14.070099   0.000000
   32       14.738141   0.000000
   33       16.521118   0.000000
   34       18.196872   0.000000
   35       18.203135   0.000000
   36       19.200211   0.000000
   37       19.777826   0.000000
   38       20.022659   0.000000
   39       20.366197   0.000000
   40       21.548874   0.000000
   41       21.867627   0.000000
   42       22.634059   0.000000
   43       22.644875   0.000000
   44       22.996445   0.000000
   45       23.425417   0.000000
   46       23.490741   0.000000
   47       24.115119   0.000000
   48       24.190963   0.000000

 -0.5064228E+00  0.4935772E+00  0.3378378E+00  0.1639344E-01
    1      -15.572173   1.000000
    2      -15.572152   1.000000
    3      -15.540002   1.000000
    4      -15.525662   1.000000
    5      -15.431543   1.000000
    6      -15.426258   1.000000
    7      -15.361114   1.000000
    8      -15.351688   1.000000
    9      -15.349031   1.000000
   10      -15.336744   1.000000
   11       -8.203165   1.000000
   12       -7.809860   1.000000
   13       -2.216235   1.000000
   14       -1.499548   1.000000
   15        2.273398   1.000000
   16        2.941359   1.000000
   17        3.078620   1.000000
   18        3.261950   1.000000
   19        4.166373   1.000000
   20        5.416835   1.000000
   21        5.716294   0.000000
   22        6.645373   0.000000
   23        7.821568   0.000000
   24        8.564347   0.000000
   25        8.830113   0.000000
   26        9.173654   0.000000
   27       12.216476   0.000000
   28       12.460816   0.000000
   29       12.756792   0.000000
   30       13.534885   0.000000
   31       14.106724   0.000000
   32       14.635749   0.000000
   33       16.545320   0.000000
   34       18.210238   0.000000
   35       18.214266   0.000000
   36       19.179988   0.000000
   37       19.785489   0.000000
   38       20.012708   0.000000
   39       20.356439   0.000000
   40       21.559288   0.000000
   41       21.899750   0.000000
   42       22.595082   0.000000
   43       22.739134   0.000000
   44       22.921260   0.000000
   45       23.404138   0.000000
   46       23.542166   0.000000
   47       24.083658   0.000000
   48       24.203771   0.000000

 -0.4935772E+00  0.5064228E+00  0.3378378E+00  0.1639344E-01
    1      -15.572173   1.000000
    2      -15.572152   1.000000
    3      -15.540002   1.000000
    4      -15.525662   1.000000
    5      -15.431543   1.000000
    6      -15.426258   1.000000
    7      -15.361114   1.000000
    8      -15.351688   1.000000
    9      -15.349031   1.000000
   10      -15.336744   1.000000
   11       -8.203165   1.000000
   12       -7.809860   1.000000
   13       -2.216235   1.000000
   14       -1.499548   1.000000
   15        2.273398   1.000000
   16        2.941359   1.000000
   17        3.078620   1.000000
   18        3.261950   1.000000
   19        4.166373   1.000000
   20        5.416835   1.000000
   21        5.716294   0.000000
   22        6.645373   0.000000
   23        7.821568   0.000000
   24        8.564347   0.000000
   25        8.830113   0.000000
   26        9.173654   0.000000
   27       12.216476   0.000000
   28       12.460816   0.000000
   29       12.756792   0.000000
   30       13.534885   0.000000
   31       14.106724   0.000000
   32       14.635749   0.000000
   33       16.545320   0.000000
   34       18.210238   0.000000
   35       18.214266   0.000000
   36       19.179988   0.000000
   37       19.785489   0.000000
   38       20.012708   0.000000
   39       20.356439   0.000000
   40       21.559287   0.000000
   41       21.899762   0.000000
   42       22.595114   0.000000
   43       22.737698   0.000000
   44       22.921316   0.000000
   45       23.401752   0.000000
   46       23.540638   0.000000
   47       24.083631   0.000000
   48       24.202971   0.000000

 -0.4871544E+00  0.5128456E+00  0.3378378E+00  0.1639344E-01
    1      -15.572155   1.000000
    2      -15.572153   1.000000
    3      -15.540014   1.000000
    4      -15.525658   1.000000
    5      -15.431617   1.000000
    6      -15.426334   1.000000
    7      -15.361128   1.000000
    8      -15.351608   1.000000
    9      -15.349054   1.000000
   10      -15.336679   1.000000
   11       -8.201475   1.000000
   12       -7.809003   1.000000
   13       -2.214061   1.000000
   14       -1.496925   1.000000
   15        2.220157   1.000000
   16        2.986744   1.000000
   17        3.077807   1.000000
   18        3.238494   1.000000
   19        4.172782   1.000000
   20        5.387324   1.000000
   21        5.746014   0.000000
   22        6.641393   0.000000
   23        7.841577   0.000000
   24        8.437667   0.000000
   25        8.965849   0.000000
   26        9.188563   0.000000
   27       12.110744   0.000000
   28       12.518405   0.000000
   29       12.830496   0.000000
   30       13.486308   0.000000
   31       14.070099   0.000000
   32       14.738141   0.000000
   33       16.521118   0.000000
   34       18.196872   0.000000
   35       18.203135   0.000000
   36       19.200211   0.000000
   37       19.777826   0.000000
   38       20.022659   0.000000
   39       20.366197   0.000000
   40       21.548864   0.000000
   41       21.867586   0.000000
   42       22.634054   0.000000
   43       22.644862   0.000000
   44       22.996339   0.000000
   45       23.424980   0.000000
   46       23.489839   0.000000
   47       24.042117   0.000000
   48       24.202869   0.000000

 -0.4644613E+00  0.4644613E+00  0.3378378E+00  0.1639344E-01
    1      -15.572932   1.000000
    2      -15.571353   1.000000
    3      -15.540099   1.000000
    4      -15.525624   1.000000
    5      -15.431520   1.000000
    6      -15.426265   1.000000
    7      -15.361056   1.000000
    8      -15.351678   1.000000
    9      -15.349044   1.000000
   10      -15.336814   1.000000
   11       -8.206371   1.000000
   12       -7.807715   1.000000
   13       -2.211084   1.000000
   14       -1.495677   1.000000
   15        2.295671   1.000000
   16        2.855999   1.000000
   17        3.116556   1.000000
   18        3.268253   1.000000
   19        4.145075   1.000000
   20        5.412545   1.000000
   21        5.717686   0.000000
   22        6.707797   0.000000
   23        7.808860   0.000000
   24        8.665707   0.000000
   25        8.697258   0.000000
   26        9.177737   0.000000
   27       12.297118   0.000000
   28       12.439295   0.000000
   29       12.713918   0.000000
   30       13.567526   0.000000
   31       14.159062   0.000000
   32       14.614274   0.000000
   33       16.530420   0.000000
   34       18.152917   0.000000
   35       18.216921   0.000000
   36       19.203577   0.000000
   37       19.757544   0.000000
   38       19.999363   0.000000
   39       20.337519   0.000000
   40       21.529873   0.000000
   41       21.863899   0.000000
   42       22.331023   0.000000
   43       22.761427   0.000000
   44       23.103919   0.000000
   45       23.354387   0.000000
   46       23.494437   0.000000
   47       24.057648   0.000000
   48       24.426381   0.000000

 -0.4822306E+00  0.4822306E+00  0.3378378E+00  0.1639344E-01
    1      -15.572555   1.000000
    2      -15.571765   1.000000
    3      -15.540023   1.000000
    4      -15.525654   1.000000
    5      -15.431519   1.000000
    6      -15.426241   1.000000
    7      -15.361096   1.000000
    8      -15.351705   1.000000
    9      -15.349028   1.000000
   10      -15.336778   1.000000
   11       -8.204394   1.000000
   12       -7.809533   1.000000
   13       -2.215491   1.000000
   14       -1.499234   1.000000
   15        2.293715   1.000000
   16        2.904254   1.000000
   17        3.091208   1.000000
   18        3.269537   1.000000
   19        4.159362   1.000000
   20        5.423277   1.000000
   21        5.708874   0.000000
   22        6.662268   0.000000
   23        7.813254   0.000000
   24        8.681769   0.000000
   25        8.702500   0.000000
   26        9.171005   0.000000
   27       12.282253   0.000000
   28       12.422402   0.000000
   29       12.727043   0.000000
   30       13.555148   0.000000
   31       14.134171   0.000000
   32       14.599734   0.000000
   33       16.547739   0.000000
   34       18.198618   0.000000
   35       18.217721   0.000000
   36       19.181542   0.000000
   37       19.780416   0.000000
   38       20.006728   0.000000
   39       20.349569   0.000000
   40       21.553938   0.000000
   41       21.898925   0.000000
   42       22.487748   0.000000
   43       22.801917   0.000000
   44       22.944381   0.000000
   45       23.419458   0.000000
   46       23.499146   0.000000
   47       24.055791   0.000000
   48       24.269684   0.000000

 -0.5177694E+00  0.5177694E+00  0.3378378E+00  0.1639344E-01
    1      -15.572555   1.000000
    2      -15.571765   1.000000
    3      -15.540023   1.000000
    4      -15.525654   1.000000
    5      -15.431519   1.000000
    6      -15.426241   1.000000
    7      -15.361096   1.000000
    8      -15.351705   1.000000
    9      -15.349028   1.000000
   10      -15.336778   1.000000
   11       -8.204394   1.000000
   12       -7.809533   1.000000
   13       -2.215491   1.000000
   14       -1.499234   1.000000
   15        2.293715   1.000000
   16        2.904254   1.000000
   17        3.091208   1.000000
   18        3.269537   1.000000
   19        4.159362   1.000000
   20        5.423277   1.000000
   21        5.708874   0.000000
   22        6.662268   0.000000
   23        7.813254   0.000000
   24        8.681769   0.000000
   25        8.702500   0.000000
   26        9.171005   0.000000
   27       12.282253   0.000000
   28       12.422402   0.000000
   29       12.727043   0.000000
   30       13.555148   0.000000
   31       14.134171   0.000000
   32       14.599734   0.000000
   33       16.547739   0.000000
   34       18.198618   0.000000
   35       18.217721   0.000000
   36       19.181542   0.000000
   37       19.780416   0.000000
   38       20.006728   0.000000
   39       20.349569   0.000000
   40       21.553919   0.000000
   41       21.898892   0.000000
   42       22.487766   0.000000
   43       22.802081   0.000000
   44       22.944991   0.000000
   45       23.419308   0.000000
   46       23.497781   0.000000
   47       24.066817   0.000000
   48       24.271150   0.000000

 -0.5355387E+00  0.5355387E+00  0.3378378E+00  0.1639344E-01
    1      -15.572932   1.000000
    2      -15.571353   1.000000
    3      -15.540099   1.000000
    4      -15.525624   1.000000
    5      -15.431520   1.000000
    6      -15.426265   1.000000
    7      -15.361056   1.000000
    8      -15.351678   1.000000
    9      -15.349044   1.000000
   10      -15.336814   1.000000
   11       -8.206371   1.000000
   12       -7.807715   1.000000
   13       -2.211084   1.000000
   14       -1.495677   1.000000
   15        2.295671   1.000000
   16        2.855999   1.000000
   17        3.116556   1.000000
   18        3.268253   1.000000
   19        4.145075   1.000000
   20        5.412545   1.000000
   21        5.717686   0.000000
   22        6.707797   0.000000
   23        7.808860   0.000000
   24        8.665707   0.000000
   25        8.697258   0.000000
   26        9.177737   0.000000
   27       12.297118   0.000000
   28       12.439295   0.000000
   29       12.713918   0.000000
   30       13.567526   0.000000
   31       14.159062   0.000000
   32       14.614274   0.000000
   33       16.530420   0.000000
   34       18.152917   0.000000
   35       18.216921   0.000000
   36       19.203577   0.000000
   37       19.757544   0.000000
   38       19.999363   0.000000
   39       20.337519   0.000000
   40       21.529871   0.000000
   41       21.863909   0.000000
   42       22.331016   0.000000
   43       22.761820   0.000000
   44       23.103876   0.000000
   45       23.353306   0.000000
   46       23.496079   0.000000
   47       24.025699   0.000000
   48       24.391880   0.000000

 -0.5000000E+00  0.5000000E+00  0.3122890E+00  0.1639344E-01
    1      -15.572875   1.000000
    2      -15.572617   1.000000
    3      -15.541300   1.000000
    4      -15.524685   1.000000
    5      -15.431265   1.000000
    6      -15.425230   1.000000
    7      -15.361988   1.000000
    8      -15.353136   1.000000
    9      -15.348204   1.000000
   10      -15.336051   1.000000
   11       -8.249095   1.000000
   12       -7.805868   1.000000
   13       -2.178275   1.000000
   14       -1.352956   1.000000
   15        2.192070   1.000000
   16        2.822443   1.000000
   17        3.024318   1.000000
   18        3.274291   1.000000
   19        4.190239   1.000000
   20        5.312036   1.000000
   21        5.851118   0.000000
   22        6.540850   0.000000
   23        7.937748   0.000000
   24        8.887104   0.000000
   25        8.910542   0.000000
   26        9.370995   0.000000
   27       12.165813   0.000000
   28       12.184694   0.000000
   29       12.641158   0.000000
   30       13.399734   0.000000
   31       14.134327   0.000000
   32       14.843492   0.000000
   33       16.365511   0.000000
   34       17.734457   0.000000
   35       18.091430   0.000000
   36       18.880088   0.000000
   37       19.439687   0.000000
   38       20.410642   0.000000
   39       20.639788   0.000000
   40       21.461863   0.000000
   41       21.698952   0.000000
   42       22.396085   0.000000
   43       22.625817   0.000000
   44       22.679216   0.000000
   45       23.401754   0.000000
   46       23.697438   0.000000
   47       23.825918   0.000000
   48       24.522320   0.000000

 -0.5000000E+00  0.5000000E+00  0.3250634E+00  0.1639344E-01
    1      -15.572514   1.000000
    2      -15.572379   1.000000
    3      -15.540651   1.000000
    4      -15.525173   1.000000
    5      -15.431400   1.000000
    6      -15.425736   1.000000
    7      -15.361552   1.000000
    8      -15.352427   1.000000
    9      -15.348608   1.000000
   10      -15.336399   1.000000
   11       -8.226497   1.000000
   12       -7.807552   1.000000
   13       -2.198911   1.000000
   14       -1.427850   1.000000
   15        2.242077   1.000000
   16        2.872871   1.000000
   17        3.051300   1.000000
   18        3.273498   1.000000
   19        4.177152   1.000000
   20        5.391801   1.000000
   21        5.755257   0.000000
   22        6.593543   0.000000
   23        7.872769   0.000000
   24        8.787294   0.000000
   25        8.806272   0.000000
   26        9.270053   0.000000
   27       12.220106   0.000000
   28       12.323100   0.000000
   29       12.657673   0.000000
   30       13.502155   0.000000
   31       14.098888   0.000000
   32       14.718058   0.000000
   33       16.466050   0.000000
   34       17.975159   0.000000
   35       18.162745   0.000000
   36       19.035648   0.000000
   37       19.614810   0.000000
   38       20.194300   0.000000
   39       20.508421   0.000000
   40       21.510685   0.000000
   41       21.806961   0.000000
   42       22.487442   0.000000
   43       22.738360   0.000000
   44       22.741459   0.000000
   45       23.388316   0.000000
   46       23.691605   0.000000
   47       23.889277   0.000000
   48       24.371345   0.000000

 -0.5000000E+00  0.5000000E+00  0.3506123E+00  0.1639344E-01
    1      -15.571936   1.000000
    2      -15.571869   1.000000
    3      -15.539342   1.000000
    4      -15.526154   1.000000
    5      -15.431619   1.000000
    6      -15.426718   1.000000
    7      -15.360655   1.000000
    8      -15.351000   1.000000
    9      -15.349447   1.000000
   10      -15.337151   1.000000
   11       -8.180869   1.000000
   12       -7.813705   1.000000
   13       -2.232216   1.000000
   14       -1.570489   1.000000
   15        2.344868   1.000000
   16        2.976261   1.000000
   17        3.106763   1.000000
   18        3.263469   1.000000
   19        4.151992   1.000000
   20        5.383883   1.000000
   21        5.737372   0.000000
   22        6.699664   0.000000
   23        7.763930   0.000000
   24        8.587943   0.000000
   25        8.604831   0.000000
   26        9.067434   0.000000
   27       12.337299   0.000000
   28       12.456981   0.000000
   29       12.870735   0.000000
   30       13.538486   0.000000
   31       14.222601   0.000000
   32       14.473973   0.000000
   33       16.623692   0.000000
   34       18.243615   0.000000
   35       18.462654   0.000000
   36       19.263494   0.000000
   37       19.889092   0.000000
   38       19.959210   0.000000
   39       20.187747   0.000000
   40       21.617354   0.000000
   41       22.013014   0.000000
   42       22.666347   0.000000
   43       22.880665   0.000000
   44       22.967983   0.000000
   45       23.423010   0.000000
   46       23.430781   0.000000
   47       24.054125   0.000000
   48       24.261479   0.000000

 -0.5000000E+00  0.5000000E+00  0.3633867E+00  0.1639344E-01
    1      -15.571732   1.000000
    2      -15.571588   1.000000
    3      -15.538686   1.000000
    4      -15.526645   1.000000
    5      -15.431700   1.000000
    6      -15.427192   1.000000
    7      -15.360194   1.000000
    8      -15.350285   1.000000
    9      -15.349883   1.000000
   10      -15.337556   1.000000
   11       -8.158009   1.000000
   12       -7.818278   1.000000
   13       -2.244487   1.000000
   14       -1.637873   1.000000
   15        2.397330   1.000000
   16        3.028386   1.000000
   17        3.134882   1.000000
   18        3.253827   1.000000
   19        4.140814   1.000000
   20        5.296592   1.000000
   21        5.815067   0.000000
   22        6.751926   0.000000
   23        7.720609   0.000000
   24        8.490450   0.000000
   25        8.508336   0.000000
   26        8.966799   0.000000
   27       12.400082   0.000000
   28       12.472723   0.000000
   29       13.045756   0.000000
   30       13.487294   0.000000
   31       14.355377   0.000000
   32       14.366652   0.000000
   33       16.671569   0.000000
   34       18.245159   0.000000
   35       18.709007   0.000000
   36       19.262866   0.000000
   37       19.881970   0.000000
   38       20.023679   0.000000
   39       20.127897   0.000000
   40       21.673248   0.000000
   41       22.110647   0.000000
   42       22.753722   0.000000
   43       22.920077   0.000000
   44       23.069292   0.000000
   45       23.286955   0.000000
   46       23.490700   0.000000
   47       23.911551   0.000000
   48       24.420331   0.000000

 -0.4773068E+00  0.4516157E+00  0.3378378E+00  0.1639344E-01
    1      -15.572921   1.000000
    2      -15.571343   1.000000
    3      -15.540116   1.000000
    4      -15.525621   1.000000
    5      -15.431619   1.000000
    6      -15.426367   1.000000
    7      -15.361077   1.000000
    8      -15.351573   1.000000
    9      -15.349079   1.000000
   10      -15.336729   1.000000
   11       -8.204115   1.000000
   12       -7.806575   1.000000
   13       -2.208171   1.000000
   14       -1.492215   1.000000
   15        2.221843   1.000000
   16        2.902949   1.000000
   17        3.132020   1.000000
   18        3.235976   1.000000
   19        4.154981   1.000000
   20        5.373485   1.000000
   21        5.756734   0.000000
   22        6.701768   0.000000
   23        7.836082   0.000000
   24        8.426675   0.000000
   25        8.942773   0.000000
   26        9.202838   0.000000
   27       12.133271   0.000000
   28       12.531275   0.000000
   29       12.819217   0.000000
   30       13.504429   0.000000
   31       14.101326   0.000000
   32       14.758830   0.000000
   33       16.499145   0.000000
   34       18.099540   0.000000
   35       18.241424   0.000000
   36       19.224880   0.000000
   37       19.744520   0.000000
   38       20.012983   0.000000
   39       20.353036   0.000000
   40       21.516776   0.000000
   41       21.816478   0.000000
   42       22.358713   0.000000
   43       22.733282   0.000000
   44       23.115513   0.000000
   45       23.307369   0.000000
   46       23.549832   0.000000
   47       24.035170   0.000000
   48       24.456240   0.000000

 -0.4708841E+00  0.4580385E+00  0.3378378E+00  0.1639344E-01
    1      -15.572929   1.000000
    2      -15.571350   1.000000
    3      -15.540104   1.000000
    4      -15.525624   1.000000
    5      -15.431545   1.000000
    6      -15.426291   1.000000
    7      -15.361061   1.000000
    8      -15.351652   1.000000
    9      -15.349053   1.000000
   10      -15.336793   1.000000
   11       -8.205807   1.000000
   12       -7.807429   1.000000
   13       -2.210355   1.000000
   14       -1.494811   1.000000
   15        2.275681   1.000000
   16        2.869591   1.000000
   17        3.120161   1.000000
   18        3.260043   1.000000
   19        4.147539   1.000000
   20        5.402662   1.000000
   21        5.727553   0.000000
   22        6.706325   0.000000
   23        7.815797   0.000000
   24        8.551472   0.000000
   25        8.813291   0.000000
   26        9.183787   0.000000
   27       12.237774   0.000000
   28       12.479843   0.000000
   29       12.741075   0.000000
   30       13.551830   0.000000
   31       14.139265   0.000000
   32       14.655700   0.000000
   33       16.522492   0.000000
   34       18.135857   0.000000
   35       18.226804   0.000000
   36       19.208956   0.000000
   37       19.754211   0.000000
   38       20.002748   0.000000
   39       20.341485   0.000000
   40       21.526573   0.000000
   41       21.850950   0.000000
   42       22.340125   0.000000
   43       22.752950   0.000000
   44       23.108385   0.000000
   45       23.341714   0.000000
   46       23.508621   0.000000
   47       24.041005   0.000000
   48       24.406559   0.000000

 -0.4580385E+00  0.4708841E+00  0.3378378E+00  0.1639344E-01
    1      -15.572929   1.000000
    2      -15.571350   1.000000
    3      -15.540104   1.000000
    4      -15.525624   1.000000
    5      -15.431545   1.000000
    6      -15.426291   1.000000
    7      -15.361061   1.000000
    8      -15.351652   1.000000
    9      -15.349053   1.000000
   10      -15.336793   1.000000
   11       -8.205807   1.000000
   12       -7.807429   1.000000
   13       -2.210355   1.000000
   14       -1.494811   1.000000
   15        2.275681   1.000000
   16        2.869591   1.000000
   17        3.120161   1.000000
   18        3.260043   1.000000
   19        4.147539   1.000000
   20        5.402662   1.000000
   21        5.727553   0.000000
   22        6.706325   0.000000
   23        7.815797   0.000000
   24        8.551472   0.000000
   25        8.813291   0.000000
   26        9.183787   0.000000
   27       12.237774   0.000000
   28       12.479843   0.000000
   29       12.741075   0.000000
   30       13.551830   0.000000
   31       14.139265   0.000000
   32       14.655700   0.000000
   33       16.522492   0.000000
   34       18.135857   0.000000
   35       18.226804   0.000000
   36       19.208956   0.000000
   37       19.754211   0.000000
   38       20.002748   0.000000
   39       20.341485   0.000000
   40       21.526565   0.000000
   41       21.850949   0.000000
   42       22.340114   0.000000
   43       22.752616   0.000000
   44       23.106158   0.000000
   45       23.340337   0.000000
   46       23.509117   0.000000
   47       24.024169   0.000000
   48       24.380271   0.000000

 -0.4516157E+00  0.4773068E+00  0.3378378E+00  0.1639344E-01
    1      -15.572921   1.000000
    2      -15.571343   1.000000
    3      -15.540116   1.000000
    4      -15.525621   1.000000
    5      -15.431619   1.000000
    6      -15.426367   1.000000
    7      -15.361077   1.000000
    8      -15.351573   1.000000
    9      -15.349079   1.000000
   10      -15.336729   1.000000
   11       -8.204115   1.000000
   12       -7.806575   1.000000
   13       -2.208171   1.000000
   14       -1.492215   1.000000
   15        2.221843   1.000000
   16        2.902949   1.000000
   17        3.132020   1.000000
   18        3.235976   1.000000
   19        4.154981   1.000000
   20        5.373485   1.000000
   21        5.756734   0.000000
   22        6.701768   0.000000
   23        7.836082   0.000000
   24        8.426675   0.000000
   25        8.942773   0.000000
   26        9.202838   0.000000
   27       12.133271   0.000000
   28       12.531275   0.000000
   29       12.819217   0.000000
   30       13.504429   0.000000
   31       14.101326   0.000000
   32       14.758830   0.000000
   33       16.499145   0.000000
   34       18.099540   0.000000
   35       18.241424   0.000000
   36       19.224880   0.000000
   37       19.744520   0.000000
   38       20.012983   0.000000
   39       20.353036   0.000000
   40       21.516798   0.000000
   41       21.816447   0.000000
   42       22.358677   0.000000
   43       22.733158   0.000000
   44       23.115677   0.000000
   45       23.304627   0.000000
   46       23.545544   0.000000
   47       24.032544   0.000000
   48       24.447660   0.000000

 -0.4950762E+00  0.4693851E+00  0.3378378E+00  0.1639344E-01
    1      -15.572543   1.000000
    2      -15.571755   1.000000
    3      -15.540040   1.000000
    4      -15.525649   1.000000
    5      -15.431618   1.000000
    6      -15.426342   1.000000
    7      -15.361115   1.000000
    8      -15.351600   1.000000
    9      -15.349060   1.000000
   10      -15.336692   1.000000
   11       -8.202140   1.000000
   12       -7.808391   1.000000
   13       -2.212588   1.000000
   14       -1.495745   1.000000
   15        2.220588   1.000000
   16        2.958893   1.000000
   17        3.098256   1.000000
   18        3.237856   1.000000
   19        4.168225   1.000000
   20        5.383840   1.000000
   21        5.748508   0.000000
   22        6.656816   0.000000
   23        7.840192   0.000000
   24        8.434917   0.000000
   25        8.959763   0.000000
   26        9.192410   0.000000
   27       12.116406   0.000000
   28       12.521749   0.000000
   29       12.827452   0.000000
   30       13.490858   0.000000
   31       14.078010   0.000000
   32       14.743320   0.000000
   33       16.515607   0.000000
   34       18.157892   0.000000
   35       18.226872   0.000000
   36       19.207047   0.000000
   37       19.769454   0.000000
   38       20.020065   0.000000
   39       20.363241   0.000000
   40       21.540229   0.000000
   41       21.853855   0.000000
   42       22.508564   0.000000
   43       22.722542   0.000000
   44       23.026648   0.000000
   45       23.435658   0.000000
   46       23.458225   0.000000
   47       24.037122   0.000000
   48       24.241614   0.000000

 -0.4886534E+00  0.4758078E+00  0.3378378E+00  0.1639344E-01
    1      -15.572551   1.000000
    2      -15.571762   1.000000
    3      -15.540027   1.000000