<?xml version="1.0" encoding="ISO-8859-1"?>
<modeling>
 <generator>
  <i name="program" type="string">vasp </i>
  <i name="version" type="string">5.4.4.18Apr17-6-g9f103f2a35  </i>
  <i name="subversion" type="string">(build Mar 20 2018 18:01:20) complex            parallel </i>
  <i name="platform" type="string">LinuxGNU </i>
  <i name="date" type="string">2020 07 13 </i>
  <i name="time" type="string">22:35:52 </i>
 </generator>
 <incar>
  <i type="string" name="SYSTEM"> SnSe</i>
  <i type="int" name="ISTART">     1</i>
  <i type="string" name="PREC">accurate</i>
  <i type="string" name="ALGO"> A</i>
  <i type="logical" name="ADDGRID"> T  </i>
  <i type="int" name="ISPIN">     1</i>
  <i type="int" name="ICHARG">    11</i>
  <i type="int" name="IBRION">    -1</i>
  <i name="EDIFF">      0.00000010</i>
  <i name="EDIFFG">     -0.00100000</i>
  <i type="int" name="NSW">     0</i>
  <i name="ENCUT">    600.00000000</i>
  <i type="int" name="NBANDS">    48</i>
  <i type="logical" name="LREAL"> F  </i>
  <i type="logical" name="LPLANE"> T  </i>
  <i type="int" name="ISMEAR">     0</i>
  <i name="SIGMA">      0.01000000</i>
  <i type="int" name="LMAXMIX">     4</i>
  <i type="logical" name="LWAVE"> F  </i>
  <i type="logical" name="LCHARG"> F  </i>
  <v type="int" name="KPOINT_BSE">    -1     0     0     0</v>
 </incar>
 <structure name="primitive_cell" >
  <crystal>
   <varray name="basis" >
    <v>       2.13818630      -5.92642563      -0.00000000 </v>
    <v>       2.13818630       5.92642563       0.00000000 </v>
    <v>       0.00000000       0.00000000       4.25446176 </v>
   </varray>
   <i name="volume">    107.82339484 </i>
   <varray name="rec_basis" >
    <v>       0.23384305      -0.08436789       0.00000000 </v>
    <v>       0.23384305       0.08436789      -0.00000000 </v>
    <v>       0.00000000      -0.00000000       0.23504736 </v>
   </varray>
  </crystal>
  <varray name="positions" >
   <v>       0.37460531      -0.37460531       0.25000000 </v>
   <v>       0.14358059      -0.14358059       0.25000000 </v>
   <v>      -0.14358059       0.14358059      -0.25000000 </v>
   <v>      -0.37460531       0.37460531      -0.25000000 </v>
  </varray>
 </structure>
 <varray name="primitive_index" >
  <v type="int" >        1 </v>
  <v type="int" >        3 </v>
  <v type="int" >        4 </v>
  <v type="int" >        2 </v>
 </varray>
 <kpoints>
  <varray name="kpointlist" >
   <v>       0.00000000       0.00000000       0.00000000 </v>
   <v>       0.00672719       0.00672719       0.00000000 </v>
   <v>       0.01345439       0.01345439       0.00000000 </v>
   <v>       0.02018158       0.02018158       0.00000000 </v>
   <v>       0.02690877       0.02690877       0.00000000 </v>
   <v>       0.03363596       0.03363596       0.00000000 </v>
   <v>       0.04036316       0.04036316       0.00000000 </v>
   <v>       0.04709035       0.04709035       0.00000000 </v>
   <v>       0.05381754       0.05381754       0.00000000 </v>
   <v>       0.06054473       0.06054473       0.00000000 </v>
   <v>       0.06727193       0.06727193       0.00000000 </v>
   <v>       0.07399912       0.07399912       0.00000000 </v>
   <v>       0.08072631       0.08072631       0.00000000 </v>
   <v>       0.08745350       0.08745350       0.00000000 </v>
   <v>       0.09418070       0.09418070       0.00000000 </v>
   <v>       0.10090789       0.10090789       0.00000000 </v>
   <v>       0.10763508       0.10763508       0.00000000 </v>
   <v>       0.11436227       0.11436227       0.00000000 </v>
   <v>       0.12108947       0.12108947       0.00000000 </v>
   <v>       0.12781666       0.12781666       0.00000000 </v>
   <v>       0.13454385       0.13454385       0.00000000 </v>
   <v>       0.14127104       0.14127104       0.00000000 </v>
   <v>       0.14799824       0.14799824       0.00000000 </v>
   <v>       0.15472543       0.15472543       0.00000000 </v>
   <v>       0.16145262       0.16145262       0.00000000 </v>
   <v>       0.16817981       0.16817981       0.00000000 </v>
   <v>       0.17490701       0.17490701       0.00000000 </v>
   <v>       0.18163420       0.18163420       0.00000000 </v>
   <v>       0.18836139       0.18836139       0.00000000 </v>
   <v>       0.19508858       0.19508858       0.00000000 </v>
   <v>       0.20181578       0.20181578       0.00000000 </v>
   <v>       0.20854297       0.20854297       0.00000000 </v>
   <v>       0.21527016       0.21527016       0.00000000 </v>
   <v>       0.22199735       0.22199735       0.00000000 </v>
   <v>       0.22872455       0.22872455       0.00000000 </v>
   <v>       0.23545174       0.23545174       0.00000000 </v>
   <v>       0.24217893       0.24217893       0.00000000 </v>
   <v>       0.24890613       0.24890613       0.00000000 </v>
   <v>       0.25563332       0.25563332       0.00000000 </v>
   <v>       0.26236051       0.26236051       0.00000000 </v>
   <v>       0.26908770       0.26908770       0.00000000 </v>
   <v>       0.27581490       0.27581490       0.00000000 </v>
   <v>       0.28254209       0.28254209       0.00000000 </v>
   <v>       0.28254209       0.28254209       0.00000000 </v>
   <v>       0.26370595       0.29703928       0.00000000 </v>
   <v>       0.24486981       0.31153648       0.00000000 </v>
   <v>       0.22603367       0.32603367       0.00000000 </v>
   <v>       0.20719753       0.34053086       0.00000000 </v>
   <v>       0.18836139       0.35502806       0.00000000 </v>
   <v>       0.16952525       0.36952525       0.00000000 </v>
   <v>       0.15068911       0.38402245       0.00000000 </v>
   <v>       0.13185297       0.39851964       0.00000000 </v>
   <v>       0.11301684       0.41301684       0.00000000 </v>
   <v>       0.09418070       0.42751403       0.00000000 </v>
   <v>       0.07534456       0.44201122       0.00000000 </v>
   <v>       0.05650842       0.45650842       0.00000000 </v>
   <v>       0.03767228       0.47100561       0.00000000 </v>
   <v>       0.01883614       0.48550281       0.00000000 </v>
   <v>       0.00000000       0.50000000       0.00000000 </v>
   <v>       0.00000000       0.50000000       0.00000000 </v>
   <v>      -0.00000000       0.50000000       0.01351351 </v>
   <v>      -0.00000000       0.50000000       0.02702703 </v>
   <v>      -0.00000000       0.50000000       0.04054054 </v>
   <v>      -0.00000000       0.50000000       0.05405405 </v>
   <v>      -0.00000000       0.50000000       0.06756757 </v>
   <v>      -0.00000000       0.50000000       0.08108108 </v>
   <v>      -0.00000000       0.50000000       0.09459459 </v>
   <v>      -0.00000000       0.50000000       0.10810811 </v>
   <v>      -0.00000000       0.50000000       0.12162162 </v>
   <v>      -0.00000000       0.50000000       0.13513514 </v>
   <v>      -0.00000000       0.50000000       0.14864865 </v>
   <v>      -0.00000000       0.50000000       0.16216216 </v>
   <v>      -0.00000000       0.50000000       0.17567568 </v>
   <v>      -0.00000000       0.50000000       0.18918919 </v>
   <v>      -0.00000000       0.50000000       0.20270270 </v>
   <v>      -0.00000000       0.50000000       0.21621622 </v>
   <v>      -0.00000000       0.50000000       0.22972973 </v>
   <v>      -0.00000000       0.50000000       0.24324324 </v>
   <v>       0.00000000       0.50000000       0.25675676 </v>
   <v>       0.00000000       0.50000000       0.27027027 </v>
   <v>       0.00000000       0.50000000       0.28378378 </v>
   <v>       0.00000000       0.50000000       0.29729730 </v>
   <v>       0.00000000       0.50000000       0.31081081 </v>
   <v>       0.00000000       0.50000000       0.32432432 </v>
   <v>       0.00000000       0.50000000       0.33783784 </v>
   <v>       0.00000000       0.50000000       0.35135135 </v>
   <v>       0.00000000       0.50000000       0.36486486 </v>
   <v>       0.00000000       0.50000000       0.37837838 </v>
   <v>       0.00000000       0.50000000       0.39189189 </v>
   <v>       0.00000000       0.50000000       0.40540541 </v>
   <v>       0.00000000       0.50000000       0.41891892 </v>
   <v>       0.00000000       0.50000000       0.43243243 </v>
   <v>       0.00000000       0.50000000       0.44594595 </v>
   <v>       0.00000000       0.50000000       0.45945946 </v>
   <v>       0.00000000       0.50000000       0.47297297 </v>
   <v>       0.00000000       0.50000000       0.48648649 </v>
   <v>       0.00000000       0.50000000       0.50000000 </v>
   <v>       0.00000000       0.50000000       0.50000000 </v>
   <v>       0.01883614       0.48550281       0.50000000 </v>
   <v>       0.03767228       0.47100561       0.50000000 </v>
   <v>       0.05650842       0.45650842       0.50000000 </v>
   <v>       0.07534456       0.44201122       0.50000000 </v>
   <v>       0.09418070       0.42751403       0.50000000 </v>
   <v>       0.11301684       0.41301684       0.50000000 </v>
   <v>       0.13185297       0.39851964       0.50000000 </v>
   <v>       0.15068911       0.38402245       0.50000000 </v>
   <v>       0.16952525       0.36952525       0.50000000 </v>
   <v>       0.18836139       0.35502806       0.50000000 </v>
   <v>       0.20719753       0.34053086       0.50000000 </v>
   <v>       0.22603367       0.32603367       0.50000000 </v>
   <v>       0.24486981       0.31153648       0.50000000 </v>
   <v>       0.26370595       0.29703928       0.50000000 </v>
   <v>       0.28254209       0.28254209       0.50000000 </v>
   <v>       0.28254209       0.28254209       0.50000000 </v>
   <v>       0.27581490       0.27581490       0.50000000 </v>
   <v>       0.26908770       0.26908770       0.50000000 </v>
   <v>       0.26236051       0.26236051       0.50000000 </v>
   <v>       0.25563332       0.25563332       0.50000000 </v>
   <v>       0.24890613       0.24890613       0.50000000 </v>
   <v>       0.24217893       0.24217893       0.50000000 </v>
   <v>       0.23545174       0.23545174       0.50000000 </v>
   <v>       0.22872455       0.22872455       0.50000000 </v>
   <v>       0.22199735       0.22199735       0.50000000 </v>
   <v>       0.21527016       0.21527016       0.50000000 </v>
   <v>       0.20854297       0.20854297       0.50000000 </v>
   <v>       0.20181578       0.20181578       0.50000000 </v>
   <v>       0.19508858       0.19508858       0.50000000 </v>
   <v>       0.18836139       0.18836139       0.50000000 </v>
   <v>       0.18163420       0.18163420       0.50000000 </v>
   <v>       0.17490701       0.17490701       0.50000000 </v>
   <v>       0.16817981       0.16817981       0.50000000 </v>
   <v>       0.16145262       0.16145262       0.50000000 </v>
   <v>       0.15472543       0.15472543       0.50000000 </v>
   <v>       0.14799824       0.14799824       0.50000000 </v>
   <v>       0.14127104       0.14127104       0.50000000 </v>
   <v>       0.13454385       0.13454385       0.50000000 </v>
   <v>       0.12781666       0.12781666       0.50000000 </v>
   <v>       0.12108947       0.12108947       0.50000000 </v>
   <v>       0.11436227       0.11436227       0.50000000 </v>
   <v>       0.10763508       0.10763508       0.50000000 </v>
   <v>       0.10090789       0.10090789       0.50000000 </v>
   <v>       0.09418070       0.09418070       0.50000000 </v>
   <v>       0.08745350       0.08745350       0.50000000 </v>
   <v>       0.08072631       0.08072631       0.50000000 </v>
   <v>       0.07399912       0.07399912       0.50000000 </v>
   <v>       0.06727193       0.06727193       0.50000000 </v>
   <v>       0.06054473       0.06054473       0.50000000 </v>
   <v>       0.05381754       0.05381754       0.50000000 </v>
   <v>       0.04709035       0.04709035       0.50000000 </v>
   <v>       0.04036316       0.04036316       0.50000000 </v>
   <v>       0.03363596       0.03363596       0.50000000 </v>
   <v>       0.02690877       0.02690877       0.50000000 </v>
   <v>       0.02018158       0.02018158       0.50000000 </v>
   <v>       0.01345439       0.01345439       0.50000000 </v>
   <v>       0.00672719       0.00672719       0.50000000 </v>
   <v>       0.00000000       0.00000000       0.50000000 </v>
   <v>       0.00000000      -0.00000000       0.50000000 </v>
   <v>       0.00000000      -0.00000000       0.48648649 </v>
   <v>       0.00000000      -0.00000000       0.47297297 </v>
   <v>       0.00000000      -0.00000000       0.45945946 </v>
   <v>       0.00000000      -0.00000000       0.44594595 </v>
   <v>       0.00000000      -0.00000000       0.43243243 </v>
   <v>       0.00000000      -0.00000000       0.41891892 </v>
   <v>       0.00000000      -0.00000000       0.40540541 </v>
   <v>       0.00000000      -0.00000000       0.39189189 </v>
   <v>       0.00000000      -0.00000000       0.37837838 </v>
   <v>       0.00000000       0.00000000       0.36486486 </v>
   <v>       0.00000000      -0.00000000       0.35135135 </v>
   <v>       0.00000000      -0.00000000       0.33783784 </v>
   <v>       0.00000000      -0.00000000       0.32432432 </v>
   <v>       0.00000000      -0.00000000       0.31081081 </v>
   <v>       0.00000000      -0.00000000       0.29729730 </v>
   <v>       0.00000000      -0.00000000       0.28378378 </v>
   <v>       0.00000000      -0.00000000       0.27027027 </v>
   <v>       0.00000000      -0.00000000       0.25675676 </v>
   <v>       0.00000000      -0.00000000       0.24324324 </v>
   <v>       0.00000000      -0.00000000       0.22972973 </v>
   <v>       0.00000000      -0.00000000       0.21621622 </v>
   <v>       0.00000000      -0.00000000       0.20270270 </v>
   <v>       0.00000000      -0.00000000       0.18918919 </v>
   <v>       0.00000000      -0.00000000       0.17567568 </v>
   <v>       0.00000000      -0.00000000       0.16216216 </v>
   <v>       0.00000000      -0.00000000       0.14864865 </v>
   <v>       0.00000000      -0.00000000       0.13513514 </v>
   <v>       0.00000000      -0.00000000       0.12162162 </v>
   <v>      -0.00000000      -0.00000000       0.10810811 </v>
   <v>      -0.00000000       0.00000000       0.09459459 </v>
   <v>       0.00000000      -0.00000000       0.08108108 </v>
   <v>       0.00000000      -0.00000000       0.06756757 </v>
   <v>       0.00000000      -0.00000000       0.05405405 </v>
   <v>       0.00000000      -0.00000000       0.04054054 </v>
   <v>       0.00000000      -0.00000000       0.02702703 </v>
   <v>       0.00000000      -0.00000000       0.01351351 </v>
   <v>       0.00000000       0.00000000       0.00000000 </v>
   <v>       0.00000000       0.00000000       0.00000000 </v>
   <v>      -0.01851852       0.01851852       0.00000000 </v>
   <v>      -0.03703704       0.03703704       0.00000000 </v>
   <v>      -0.05555556       0.05555556       0.00000000 </v>
   <v>      -0.07407407       0.07407407       0.00000000 </v>
   <v>      -0.09259259       0.09259259       0.00000000 </v>
   <v>      -0.11111111       0.11111111       0.00000000 </v>
   <v>      -0.12962963       0.12962963       0.00000000 </v>
   <v>      -0.14814815       0.14814815       0.00000000 </v>
   <v>      -0.16666667       0.16666667       0.00000000 </v>
   <v>      -0.18518519       0.18518519       0.00000000 </v>
   <v>      -0.20370370       0.20370370       0.00000000 </v>
   <v>      -0.22222222       0.22222222       0.00000000 </v>
   <v>      -0.24074074       0.24074074       0.00000000 </v>
   <v>      -0.25925926       0.25925926       0.00000000 </v>
   <v>      -0.27777778       0.27777778       0.00000000 </v>
   <v>      -0.29629630       0.29629630       0.00000000 </v>
   <v>      -0.31481481       0.31481481       0.00000000 </v>
   <v>      -0.33333333       0.33333333       0.00000000 </v>
   <v>      -0.35185185       0.35185185       0.00000000 </v>
   <v>      -0.37037037       0.37037037       0.00000000 </v>
   <v>      -0.38888889       0.38888889       0.00000000 </v>
   <v>      -0.40740741       0.40740741       0.00000000 </v>
   <v>      -0.42592593       0.42592593       0.00000000 </v>
   <v>      -0.44444444       0.44444444       0.00000000 </v>
   <v>      -0.46296296       0.46296296       0.00000000 </v>
   <v>      -0.48148148       0.48148148       0.00000000 </v>
   <v>      -0.50000000       0.50000000       0.00000000 </v>
   <v>      -0.50000000       0.50000000       0.00000000 </v>
   <v>      -0.49320444       0.50679556       0.00000000 </v>
   <v>      -0.48640888       0.51359112       0.00000000 </v>
   <v>      -0.47961332       0.52038668       0.00000000 </v>
   <v>      -0.47281776       0.52718224       0.00000000 </v>
   <v>      -0.46602220       0.53397780       0.00000000 </v>
   <v>      -0.45922664       0.54077336       0.00000000 </v>
   <v>      -0.45243108       0.54756892       0.00000000 </v>
   <v>      -0.44563552       0.55436448       0.00000000 </v>
   <v>      -0.43883996       0.56116004       0.00000000 </v>
   <v>      -0.43204440       0.56795560       0.00000000 </v>
   <v>      -0.42524884       0.57475116       0.00000000 </v>
   <v>      -0.41845328       0.58154672       0.00000000 </v>
   <v>      -0.41165772       0.58834228       0.00000000 </v>
   <v>      -0.40486216       0.59513784       0.00000000 </v>
   <v>      -0.39806660       0.60193340       0.00000000 </v>
   <v>      -0.39127104       0.60872896       0.00000000 </v>
   <v>      -0.38447548       0.61552452       0.00000000 </v>
   <v>      -0.37767992       0.62232008       0.00000000 </v>
   <v>      -0.37088436       0.62911564       0.00000000 </v>
   <v>      -0.36408881       0.63591119       0.00000000 </v>
   <v>      -0.35729325       0.64270675       0.00000000 </v>
   <v>      -0.35049769       0.64950231       0.00000000 </v>
   <v>      -0.34370213       0.65629787       0.00000000 </v>
   <v>      -0.33690657       0.66309343       0.00000000 </v>
   <v>      -0.33011101       0.66988899       0.00000000 </v>
   <v>      -0.32331545       0.67668455       0.00000000 </v>
   <v>      -0.31651989       0.68348011       0.00000000 </v>
   <v>      -0.30972433       0.69027567       0.00000000 </v>
   <v>      -0.30292877       0.69707123       0.00000000 </v>
   <v>      -0.29613321       0.70386679       0.00000000 </v>
   <v>      -0.28933765       0.71066235       0.00000000 </v>
   <v>      -0.28254209       0.71745791       0.00000000 </v>
   <v>      -0.28254209       0.71745791       0.00000000 </v>
   <v>      -0.28254209       0.71745791       0.01351351 </v>
   <v>      -0.28254209       0.71745791       0.02702703 </v>
   <v>      -0.28254209       0.71745791       0.04054054 </v>
   <v>      -0.28254209       0.71745791       0.05405405 </v>
   <v>      -0.28254209       0.71745791       0.06756757 </v>
   <v>      -0.28254209       0.71745791       0.08108108 </v>
   <v>      -0.28254209       0.71745791       0.09459459 </v>
   <v>      -0.28254209       0.71745791       0.10810811 </v>
   <v>      -0.28254209       0.71745791       0.12162162 </v>
   <v>      -0.28254209       0.71745791       0.13513514 </v>
   <v>      -0.28254209       0.71745791       0.14864865 </v>
   <v>      -0.28254209       0.71745791       0.16216216 </v>
   <v>      -0.28254209       0.71745791       0.17567568 </v>
   <v>      -0.28254209       0.71745791       0.18918919 </v>
   <v>      -0.28254209       0.71745791       0.20270270 </v>
   <v>      -0.28254209       0.71745791       0.21621622 </v>
   <v>      -0.28254209       0.71745791       0.22972973 </v>
   <v>      -0.28254209       0.71745791       0.24324324 </v>
   <v>      -0.28254209       0.71745791       0.25675676 </v>
   <v>      -0.28254209       0.71745791       0.27027027 </v>
   <v>      -0.28254209       0.71745791       0.28378378 </v>
   <v>      -0.28254209       0.71745791       0.29729730 </v>
   <v>      -0.28254209       0.71745791       0.31081081 </v>
   <v>      -0.28254209       0.71745791       0.32432432 </v>
   <v>      -0.28254209       0.71745791       0.33783784 </v>
   <v>      -0.28254209       0.71745791       0.35135135 </v>
   <v>      -0.28254209       0.71745791       0.36486486 </v>
   <v>      -0.28254209       0.71745791       0.37837838 </v>
   <v>      -0.28254209       0.71745791       0.39189189 </v>
   <v>      -0.28254209       0.71745791       0.40540541 </v>
   <v>      -0.28254209       0.71745791       0.41891892 </v>
   <v>      -0.28254209       0.71745791       0.43243243 </v>
   <v>      -0.28254209       0.71745791       0.44594595 </v>
   <v>      -0.28254209       0.71745791       0.45945946 </v>
   <v>      -0.28254209       0.71745791       0.47297297 </v>
   <v>      -0.28254209       0.71745791       0.48648649 </v>
   <v>      -0.28254209       0.71745791       0.50000000 </v>
   <v>      -0.28254209       0.71745791       0.50000000 </v>
   <v>      -0.28933765       0.71066235       0.50000000 </v>
   <v>      -0.29613321       0.70386679       0.50000000 </v>
   <v>      -0.30292877       0.69707123       0.50000000 </v>
   <v>      -0.30972433       0.69027567       0.50000000 </v>
   <v>      -0.31651989       0.68348011       0.50000000 </v>
   <v>      -0.32331545       0.67668455       0.50000000 </v>
   <v>      -0.33011101       0.66988899       0.50000000 </v>
   <v>      -0.33690657       0.66309343       0.50000000 </v>
   <v>      -0.34370213       0.65629787       0.50000000 </v>
   <v>      -0.35049769       0.64950231       0.50000000 </v>
   <v>      -0.35729325       0.64270675       0.50000000 </v>
   <v>      -0.36408881       0.63591119       0.50000000 </v>
   <v>      -0.37088436       0.62911564       0.50000000 </v>
   <v>      -0.37767992       0.62232008       0.50000000 </v>
   <v>      -0.38447548       0.61552452       0.50000000 </v>
   <v>      -0.39127104       0.60872896       0.50000000 </v>
   <v>      -0.39806660       0.60193340       0.50000000 </v>
   <v>      -0.40486216       0.59513784       0.50000000 </v>
   <v>      -0.41165772       0.58834228       0.50000000 </v>
   <v>      -0.41845328       0.58154672       0.50000000 </v>
   <v>      -0.42524884       0.57475116       0.50000000 </v>
   <v>      -0.43204440       0.56795560       0.50000000 </v>
   <v>      -0.43883996       0.56116004       0.50000000 </v>
   <v>      -0.44563552       0.55436448       0.50000000 </v>
   <v>      -0.45243108       0.54756892       0.50000000 </v>
   <v>      -0.45922664       0.54077336       0.50000000 </v>
   <v>      -0.46602220       0.53397780       0.50000000 </v>
   <v>      -0.47281776       0.52718224       0.50000000 </v>
   <v>      -0.47961332       0.52038668       0.50000000 </v>
   <v>      -0.48640888       0.51359112       0.50000000 </v>
   <v>      -0.49320444       0.50679556       0.50000000 </v>
   <v>      -0.50000000       0.50000000       0.50000000 </v>
   <v>      -0.50000000       0.50000000       0.50000000 </v>
   <v>      -0.50000000       0.50000000       0.48648649 </v>
   <v>      -0.50000000       0.50000000       0.47297297 </v>
   <v>      -0.50000000       0.50000000       0.45945946 </v>
   <v>      -0.50000000       0.50000000       0.44594595 </v>
   <v>      -0.50000000       0.50000000       0.43243243 </v>
   <v>      -0.50000000       0.50000000       0.41891892 </v>
   <v>      -0.50000000       0.50000000       0.40540541 </v>
   <v>      -0.50000000       0.50000000       0.39189189 </v>
   <v>      -0.50000000       0.50000000       0.37837838 </v>
   <v>      -0.50000000       0.50000000       0.36486486 </v>
   <v>      -0.50000000       0.50000000       0.35135135 </v>
   <v>      -0.50000000       0.50000000       0.33783784 </v>
   <v>      -0.50000000       0.50000000       0.32432432 </v>
   <v>      -0.50000000       0.50000000       0.31081081 </v>
   <v>      -0.50000000       0.50000000       0.29729730 </v>
   <v>      -0.50000000       0.50000000       0.28378378 </v>
   <v>      -0.50000000       0.50000000       0.27027027 </v>
   <v>      -0.50000000       0.50000000       0.25675676 </v>
   <v>      -0.50000000       0.50000000       0.24324324 </v>
   <v>      -0.50000000       0.50000000       0.22972973 </v>
   <v>      -0.50000000       0.50000000       0.21621622 </v>
   <v>      -0.50000000       0.50000000       0.20270270 </v>
   <v>      -0.50000000       0.50000000       0.18918919 </v>
   <v>      -0.50000000       0.50000000       0.17567568 </v>
   <v>      -0.50000000       0.50000000       0.16216216 </v>
   <v>      -0.50000000       0.50000000       0.14864865 </v>
   <v>      -0.50000000       0.50000000       0.13513514 </v>
   <v>      -0.50000000       0.50000000       0.12162162 </v>
   <v>      -0.50000000       0.50000000       0.10810811 </v>
   <v>      -0.50000000       0.50000000       0.09459459 </v>
   <v>      -0.50000000       0.50000000       0.08108108 </v>
   <v>      -0.50000000       0.50000000       0.06756757 </v>
   <v>      -0.50000000       0.50000000       0.05405405 </v>
   <v>      -0.50000000       0.50000000       0.04054054 </v>
   <v>      -0.50000000       0.50000000       0.02702703 </v>
   <v>      -0.50000000       0.50000000       0.01351351 </v>
   <v>      -0.50000000       0.50000000       0.00000000 </v>
   <v>       0.00000000      -0.00000000       0.50000000 </v>
   <v>      -0.01851852       0.01851852       0.50000000 </v>
   <v>      -0.03703704       0.03703704       0.50000000 </v>
   <v>      -0.05555556       0.05555556       0.50000000 </v>
   <v>      -0.07407407       0.07407407       0.50000000 </v>
   <v>      -0.09259259       0.09259259       0.50000000 </v>
   <v>      -0.11111111       0.11111111       0.50000000 </v>
   <v>      -0.12962963       0.12962963       0.50000000 </v>
   <v>      -0.14814815       0.14814815       0.50000000 </v>
   <v>      -0.16666667       0.16666667       0.50000000 </v>
   <v>      -0.18518519       0.18518519       0.50000000 </v>
   <v>      -0.20370370       0.20370370       0.50000000 </v>
   <v>      -0.22222222       0.22222222       0.50000000 </v>
   <v>      -0.24074074       0.24074074       0.50000000 </v>
   <v>      -0.25925926       0.25925926       0.50000000 </v>
   <v>      -0.27777778       0.27777778       0.50000000 </v>
   <v>      -0.29629630       0.29629630       0.50000000 </v>
   <v>      -0.31481481       0.31481481       0.50000000 </v>
   <v>      -0.33333333       0.33333333       0.50000000 </v>
   <v>      -0.35185185       0.35185185       0.50000000 </v>
   <v>      -0.37037037       0.37037037       0.50000000 </v>
   <v>      -0.38888889       0.38888889       0.50000000 </v>
   <v>      -0.40740741       0.40740741       0.50000000 </v>
   <v>      -0.42592593       0.42592593       0.50000000 </v>
   <v>      -0.44444444       0.44444444       0.50000000 </v>
   <v>      -0.46296296       0.46296296       0.50000000 </v>
   <v>      -0.48148148       0.48148148       0.50000000 </v>
   <v>      -0.50000000       0.50000000       0.50000000 </v>
  </varray>
  <varray name="weights" >
   <v>       0.00255102 </v>
   <v>       0.00255102 </v>
   <v>       0.00255102 </v>
   <v>       0.00255102 </v>
   <v>       0.00255102 </v>
   <v>       0.00255102 </v>
   <v>       0.00255102 </v>
   <v>       0.00255102 </v>
   <v>       0.00255102 </v>
   <v>       0.00255102 </v>
   <v>       0.00255102 </v>
   <v>       0.00255102 </v>
   <v>       0.00255102 </v>
   <v>       0.00255102 </v>
   <v>       0.00255102 </v>
   <v>       0.00255102 </v>
   <v>       0.00255102 </v>
   <v>       0.00255102 </v>
   <v>       0.00255102 </v>
   <v>       0.00255102 </v>
   <v>       0.00255102 </v>
   <v>       0.00255102 </v>
   <v>       0.00255102 </v>
   <v>       0.00255102 </v>
   <v>       0.00255102 </v>
   <v>       0.00255102 </v>
   <v>       0.00255102 </v>
   <v>       0.00255102 </v>
   <v>       0.00255102 </v>
   <v>       0.00255102 </v>
   <v>       0.00255102 </v>
   <v>       0.00255102 </v>
   <v>       0.00255102 </v>
   <v>       0.00255102 </v>
   <v>       0.00255102 </v>
   <v>       0.00255102 </v>
   <v>       0.00255102 </v>
   <v>       0.00255102 </v>
   <v>       0.00255102 </v>
   <v>       0.00255102 </v>
   <v>       0.00255102 </v>
   <v>       0.00255102 </v>
   <v>       0.00255102 </v>
   <v>       0.00255102 </v>
   <v>       0.00255102 </v>
   <v>       0.00255102 </v>
   <v>       0.00255102 </v>
   <v>       0.00255102 </v>
   <v>       0.00255102 </v>
   <v>       0.00255102 </v>
   <v>       0.00255102 </v>
   <v>       0.00255102 </v>
   <v>       0.00255102 </v>
   <v>       0.00255102 </v>
   <v>       0.00255102 </v>
   <v>       0.00255102 </v>
   <v>       0.00255102 </v>
   <v>       0.00255102 </v>
   <v>       0.00255102 </v>
   <v>       0.00255102 </v>
   <v>       0.00255102 </v>
   <v>       0.00255102 </v>
   <v>       0.00255102 </v>
   <v>       0.00255102 </v>
   <v>       0.00255102 </v>
   <v>       0.00255102 </v>
   <v>       0.00255102 </v>
   <v>       0.00255102 </v>
   <v>       0.00255102 </v>
   <v>       0.00255102 </v>
   <v>       0.00255102 </v>
   <v>       0.00255102 </v>
   <v>       0.00255102 </v>
   <v>       0.00255102 </v>
   <v>       0.00255102 </v>
   <v>       0.00255102 </v>
   <v>       0.00255102 </v>
   <v>       0.00255102 </v>
   <v>       0.00255102 </v>
   <v>       0.00255102 </v>
   <v>       0.00255102 </v>
   <v>       0.00255102 </v>
   <v>       0.00255102 </v>
   <v>       0.00255102 </v>
   <v>       0.00255102 </v>
   <v>       0.00255102 </v>
   <v>       0.00255102 </v>
   <v>       0.00255102 </v>
   <v>       0.00255102 </v>
   <v>       0.00255102 </v>
   <v>       0.00255102 </v>
   <v>       0.00255102 </v>
   <v>       0.00255102 </v>
   <v>       0.00255102 </v>
   <v>       0.00255102 </v>
   <v>       0.00255102 </v>
   <v>       0.00255102 </v>
   <v>       0.00255102 </v>
   <v>       0.00255102 </v>
   <v>       0.00255102 </v>
   <v>       0.00255102 </v>
   <v>       0.00255102 </v>
   <v>       0.00255102 </v>
   <v>       0.00255102 </v>
   <v>       0.00255102 </v>
   <v>       0.00255102 </v>
   <v>       0.00255102 </v>
   <v>       0.00255102 </v>
   <v>       0.00255102 </v>
   <v>       0.00255102 </v>
   <v>       0.00255102 </v>
   <v>       0.00255102 </v>
   <v>       0.00255102 </v>
   <v>       0.00255102 </v>
   <v>       0.00255102 </v>
   <v>       0.00255102 </v>
   <v>       0.00255102 </v>
   <v>       0.00255102 </v>
   <v>       0.00255102 </v>
   <v>       0.00255102 </v>
   <v>       0.00255102 </v>
   <v>       0.00255102 </v>
   <v>       0.00255102 </v>
   <v>       0.00255102 </v>
   <v>       0.00255102 </v>
   <v>       0.00255102 </v>
   <v>       0.00255102 </v>
   <v>       0.00255102 </v>
   <v>       0.00255102 </v>
   <v>       0.00255102 </v>
   <v>       0.00255102 </v>
   <v>       0.00255102 </v>
   <v>       0.00255102 </v>
   <v>       0.00255102 </v>
   <v>       0.00255102 </v>
   <v>       0.00255102 </v>
   <v>       0.00255102 </v>
   <v>       0.00255102 </v>
   <v>       0.00255102 </v>
   <v>       0.00255102 </v>
   <v>       0.00255102 </v>
   <v>       0.00255102 </v>
   <v>       0.00255102 </v>
   <v>       0.00255102 </v>
   <v>       0.00255102 </v>
   <v>       0.00255102 </v>
   <v>       0.00255102 </v>
   <v>       0.00255102 </v>
   <v>       0.00255102 </v>
   <v>       0.00255102 </v>
   <v>       0.00255102 </v>
   <v>       0.00255102 </v>
   <v>       0.00255102 </v>
   <v>       0.00255102 </v>
   <v>       0.00255102 </v>
   <v>       0.00255102 </v>
   <v>       0.00255102 </v>
   <v>       0.00255102 </v>
   <v>       0.00255102 </v>
   <v>       0.00255102 </v>
   <v>       0.00255102 </v>
   <v>       0.00255102 </v>
   <v>       0.00255102 </v>
   <v>       0.00255102 </v>
   <v>       0.00255102 </v>
   <v>       0.00255102 </v>
   <v>       0.00255102 </v>
   <v>       0.00255102 </v>
   <v>       0.00255102 </v>
   <v>       0.00255102 </v>
   <v>       0.00255102 </v>
   <v>       0.00255102 </v>
   <v>       0.00255102 </v>
   <v>       0.00255102 </v>
   <v>       0.00255102 </v>
   <v>       0.00255102 </v>
   <v>       0.00255102 </v>
   <v>       0.00255102 </v>
   <v>       0.00255102 </v>
   <v>       0.00255102 </v>
   <v>       0.00255102 </v>
   <v>       0.00255102 </v>
   <v>       0.00255102 </v>
   <v>       0.00255102 </v>
   <v>       0.00255102 </v>
   <v>       0.00255102 </v>
   <v>       0.00255102 </v>
   <v>       0.00255102 </v>
   <v>       0.00255102 </v>
   <v>       0.00255102 </v>
   <v>       0.00255102 </v>
   <v>       0.00255102 </v>
   <v>       0.00255102 </v>
   <v>       0.00255102 </v>
   <v>       0.00255102 </v>
   <v>       0.00255102 </v>
   <v>       0.00255102 </v>
   <v>       0.00255102 </v>
   <v>       0.00255102 </v>
   <v>       0.00255102 </v>
   <v>       0.00255102 </v>
   <v>       0.00255102 </v>
   <v>       0.00255102 </v>
   <v>       0.00255102 </v>
   <v>       0.00255102 </v>
   <v>       0.00255102 </v>
   <v>       0.00255102 </v>
   <v>       0.00255102 </v>
   <v>       0.00255102 </v>
   <v>       0.00255102 </v>
   <v>       0.00255102 </v>
   <v>       0.00255102 </v>
   <v>       0.00255102 </v>
   <v>       0.00255102 </v>
   <v>       0.00255102 </v>
   <v>       0.00255102 </v>
   <v>       0.00255102 </v>
   <v>       0.00255102 </v>
   <v>       0.00255102 </v>
   <v>       0.00255102 </v>
   <v>       0.00255102 </v>
   <v>       0.00255102 </v>
   <v>       0.00255102 </v>
   <v>       0.00255102 </v>
   <v>       0.00255102 </v>
   <v>       0.00255102 </v>
   <v>       0.00255102 </v>
   <v>       0.00255102 </v>
   <v>       0.00255102 </v>
   <v>       0.00255102 </v>
   <v>       0.00255102 </v>
   <v>       0.00255102 </v>
   <v>       0.00255102 </v>
   <v>       0.00255102 </v>
   <v>       0.00255102 </v>
   <v>       0.00255102 </v>
   <v>       0.00255102 </v>
   <v>       0.00255102 </v>
   <v>       0.00255102 </v>
   <v>       0.00255102 </v>
   <v>       0.00255102 </v>
   <v>       0.00255102 </v>
   <v>       0.00255102 </v>
   <v>       0.00255102 </v>
   <v>       0.00255102 </v>
   <v>       0.00255102 </v>
   <v>       0.00255102 </v>
   <v>       0.00255102 </v>
   <v>       0.00255102 </v>
   <v>       0.00255102 </v>
   <v>       0.00255102 </v>
   <v>       0.00255102 </v>
   <v>       0.00255102 </v>
   <v>       0.00255102 </v>
   <v>       0.00255102 </v>
   <v>       0.00255102 </v>
   <v>       0.00255102 </v>
   <v>       0.00255102 </v>
   <v>       0.00255102 </v>
   <v>       0.00255102 </v>
   <v>       0.00255102 </v>
   <v>       0.00255102 </v>
   <v>       0.00255102 </v>
   <v>       0.00255102 </v>
   <v>       0.00255102 </v>
   <v>       0.00255102 </v>
   <v>       0.00255102 </v>
   <v>       0.00255102 </v>
   <v>       0.00255102 </v>
   <v>       0.00255102 </v>
   <v>       0.00255102 </v>
   <v>       0.00255102 </v>
   <v>       0.00255102 </v>
   <v>       0.00255102 </v>
   <v>       0.00255102 </v>
   <v>       0.00255102 </v>
   <v>       0.00255102 </v>
   <v>       0.00255102 </v>
   <v>       0.00255102 </v>
   <v>       0.00255102 </v>
   <v>       0.00255102 </v>
   <v>       0.00255102 </v>
   <v>       0.00255102 </v>
   <v>       0.00255102 </v>
   <v>       0.00255102 </v>
   <v>       0.00255102 </v>
   <v>       0.00255102 </v>
   <v>       0.00255102 </v>
   <v>       0.00255102 </v>
   <v>       0.00255102 </v>
   <v>       0.00255102 </v>
   <v>       0.00255102 </v>
   <v>       0.00255102 </v>
   <v>       0.00255102 </v>
   <v>       0.00255102 </v>
   <v>       0.00255102 </v>
   <v>       0.00255102 </v>
   <v>       0.00255102 </v>
   <v>       0.00255102 </v>
   <v>       0.00255102 </v>
   <v>       0.00255102 </v>
   <v>       0.00255102 </v>
   <v>       0.00255102 </v>
   <v>       0.00255102 </v>
   <v>       0.00255102 </v>
   <v>       0.00255102 </v>
   <v>       0.00255102 </v>
   <v>       0.00255102 </v>
   <v>       0.00255102 </v>
   <v>       0.00255102 </v>
   <v>       0.00255102 </v>
   <v>       0.00255102 </v>
   <v>       0.00255102 </v>
   <v>       0.00255102 </v>
   <v>       0.00255102 </v>
   <v>       0.00255102 </v>
   <v>       0.00255102 </v>
   <v>       0.00255102 </v>
   <v>       0.00255102 </v>
   <v>       0.00255102 </v>
   <v>       0.00255102 </v>
   <v>       0.00255102 </v>
   <v>       0.00255102 </v>
   <v>       0.00255102 </v>
   <v>       0.00255102 </v>
   <v>       0.00255102 </v>
   <v>       0.00255102 </v>
   <v>       0.00255102 </v>
   <v>       0.00255102 </v>
   <v>       0.00255102 </v>
   <v>       0.00255102 </v>
   <v>       0.00255102 </v>
   <v>       0.00255102 </v>
   <v>       0.00255102 </v>
   <v>       0.00255102 </v>
   <v>       0.00255102 </v>
   <v>       0.00255102 </v>
   <v>       0.00255102 </v>
   <v>       0.00255102 </v>
   <v>       0.00255102 </v>
   <v>       0.00255102 </v>
   <v>       0.00255102 </v>
   <v>       0.00255102 </v>
   <v>       0.00255102 </v>
   <v>       0.00255102 </v>
   <v>       0.00255102 </v>
   <v>       0.00255102 </v>
   <v>       0.00255102 </v>
   <v>       0.00255102 </v>
   <v>       0.00255102 </v>
   <v>       0.00255102 </v>
   <v>       0.00255102 </v>
   <v>       0.00255102 </v>
   <v>       0.00255102 </v>
   <v>       0.00255102 </v>
   <v>       0.00255102 </v>
   <v>       0.00255102 </v>
   <v>       0.00255102 </v>
   <v>       0.00255102 </v>
   <v>       0.00255102 </v>
   <v>       0.00255102 </v>
   <v>       0.00255102 </v>
   <v>       0.00255102 </v>
   <v>       0.00255102 </v>
   <v>       0.00255102 </v>
   <v>       0.00255102 </v>
   <v>       0.00255102 </v>
   <v>       0.00255102 </v>
   <v>       0.00255102 </v>
   <v>       0.00255102 </v>
   <v>       0.00255102 </v>
   <v>       0.00255102 </v>
   <v>       0.00255102 </v>
   <v>       0.00255102 </v>
   <v>       0.00255102 </v>
   <v>       0.00255102 </v>
   <v>       0.00255102 </v>
   <v>       0.00255102 </v>
   <v>       0.00255102 </v>
   <v>       0.00255102 </v>
   <v>       0.00255102 </v>
   <v>       0.00255102 </v>
   <v>       0.00255102 </v>
   <v>       0.00255102 </v>
   <v>       0.00255102 </v>
   <v>       0.00255102 </v>
   <v>       0.00255102 </v>
   <v>       0.00255102 </v>
   <v>       0.00255102 </v>
   <v>       0.00255102 </v>
   <v>       0.00255102 </v>
   <v>       0.00255102 </v>
  </varray>
 </kpoints>
 <parameters>
  <separator name="general" >
   <i type="string" name="SYSTEM">SnSe</i>
   <i type="logical" name="LCOMPAT"> F  </i>
  </separator>
  <separator name="electronic" >
   <i type="string" name="PREC">accura</i>
   <i name="ENMAX">    600.00000000</i>
   <i name="ENAUG">    446.84200000</i>
   <i name="EDIFF">      0.00000010</i>
   <i type="int" name="IALGO">    58</i>
   <i type="int" name="IWAVPR">    10</i>
   <i type="int" name="NBANDS">    48</i>
   <i name="NELECT">     40.00000000</i>
   <i type="int" name="TURBO">     0</i>
   <i type="int" name="IRESTART">     0</i>
   <i type="int" name="NREBOOT">     0</i>
   <i type="int" name="NMIN">     0</i>
   <i name="EREF">      0.00000000</i>
   <separator name="electronic smearing" >
    <i type="int" name="ISMEAR">     0</i>
    <i name="SIGMA">      0.01000000</i>
    <i name="KSPACING">      0.50000000</i>
    <i type="logical" name="KGAMMA"> T  </i>
   </separator>
   <separator name="electronic projectors" >
    <i type="logical" name="LREAL"> F  </i>
    <v name="ROPT">      0.00000000      0.00000000</v>
    <i type="int" name="LMAXPAW">  -100</i>
    <i type="int" name="LMAXMIX">     4</i>
    <i type="logical" name="NLSPLINE"> F  </i>
   </separator>
   <separator name="electronic startup" >
    <i type="int" name="ISTART">     0</i>
    <i type="int" name="ICHARG">    11</i>
    <i type="int" name="INIWAV">     1</i>
   </separator>
   <separator name="electronic spin" >
    <i type="int" name="ISPIN">     1</i>
    <i type="logical" name="LNONCOLLINEAR"> F  </i>
    <v name="MAGMOM">      1.00000000      1.00000000      1.00000000      1.00000000</v>
    <i name="NUPDOWN">     -1.00000000</i>
    <i type="logical" name="LSORBIT"> F  </i>
    <v name="SAXIS">      0.00000000      0.00000000      1.00000000</v>
    <i type="logical" name="LSPIRAL"> F  </i>
    <v name="QSPIRAL">      0.00000000      0.00000000      0.00000000</v>
    <i type="logical" name="LZEROZ"> F  </i>
   </separator>
   <separator name="electronic exchange-correlation" >
    <i type="logical" name="LASPH"> F  </i>
    <i type="logical" name="LMETAGGA"> F  </i>
   </separator>
   <separator name="electronic convergence" >
    <i type="int" name="NELM">    60</i>
    <i type="int" name="NELMDL">     0</i>
    <i type="int" name="NELMIN">     2</i>
    <i name="ENINI">    600.00000000</i>
    <separator name="electronic convergence detail" >
     <i type="logical" name="LDIAG"> T  </i>
     <i type="logical" name="LSUBROT"> F  </i>
     <i name="WEIMIN">      0.00000000</i>
     <i name="EBREAK">      0.00000000</i>
     <i name="DEPER">      0.30000000</i>
     <i type="int" name="NRMM">     4</i>
     <i name="TIME">      0.40000000</i>
    </separator>
   </separator>
   <separator name="electronic mixer" >
    <i name="AMIX">      0.40000000</i>
    <i name="BMIX">      1.00000000</i>
    <i name="AMIN">      0.10000000</i>
    <i name="AMIX_MAG">      1.60000000</i>
    <i name="BMIX_MAG">      1.00000000</i>
    <separator name="electronic mixer details" >
     <i type="int" name="IMIX">     4</i>
     <i type="logical" name="MIXFIRST"> F  </i>
     <i type="int" name="MAXMIX">   -45</i>
     <i name="WC">    100.00000000</i>
     <i type="int" name="INIMIX">     1</i>
     <i type="int" name="MIXPRE">     1</i>
     <i type="int" name="MREMOVE">     5</i>
    </separator>
   </separator>
   <separator name="electronic dipolcorrection" >
    <i type="logical" name="LDIPOL"> F  </i>
    <i type="logical" name="LMONO"> F  </i>
    <i type="int" name="IDIPOL">     0</i>
    <i name="EPSILON">      1.00000000</i>
    <v name="DIPOL">   -100.00000000   -100.00000000   -100.00000000</v>
    <i name="EFIELD">      0.00000000</i>
   </separator>
  </separator>
  <separator name="grids" >
   <i type="int" name="NGX">    50</i>
   <i type="int" name="NGY">    50</i>
   <i type="int" name="NGZ">    36</i>
   <i type="int" name="NGXF">   100</i>
   <i type="int" name="NGYF">   100</i>
   <i type="int" name="NGZF">    72</i>
   <i type="logical" name="ADDGRID"> T  </i>
  </separator>
  <separator name="ionic" >
   <i type="int" name="NSW">     0</i>
   <i type="int" name="IBRION">    -1</i>
   <i type="int" name="MDALGO">     0</i>
   <i type="int" name="ISIF">     2</i>
   <i name="PSTRESS">      0.00000000</i>
   <i name="EDIFFG">     -0.00100000</i>
   <i type="int" name="NFREE">     0</i>
   <i name="POTIM">      0.50000000</i>
   <i name="SMASS">     -3.00000000</i>
   <i name="SCALEE">      1.00000000</i>
  </separator>
  <separator name="ionic md" >
   <i name="TEBEG">      0.00010000</i>
   <i name="TEEND">      0.00010000</i>
   <i type="int" name="NBLOCK">     1</i>
   <i type="int" name="KBLOCK">     1</i>
   <i type="int" name="NPACO">   256</i>
   <i name="APACO">     16.00000000</i>
  </separator>
  <separator name="symmetry" >
   <i type="int" name="ISYM">     2</i>
   <i name="SYMPREC">      0.00001000</i>
  </separator>
  <separator name="dos" >
   <i type="int" name="LORBIT">     0</i>
   <v name="RWIGS">     -1.00000000     -1.00000000</v>
   <i type="int" name="NEDOS">   301</i>
   <i name="EMIN">     10.00000000</i>
   <i name="EMAX">    -10.00000000</i>
   <i name="EFERMI">      0.00000000</i>
  </separator>
  <separator name="writing" >
   <i type="int" name="NWRITE">     2</i>
   <i type="logical" name="LWAVE"> F  </i>
   <i type="logical" name="LDOWNSAMPLE"> F  </i>
   <i type="logical" name="LCHARG"> F  </i>
   <i type="logical" name="LPARD"> F  </i>
   <i type="logical" name="LVTOT"> F  </i>
   <i type="logical" name="LVHAR"> F  </i>
   <i type="logical" name="LELF"> F  </i>
   <i type="logical" name="LOPTICS"> F  </i>
   <v name="STM">      0.00000000      0.00000000      0.00000000      0.00000000      0.00000000      0.00000000      0.00000000</v>
  </separator>
  <separator name="performance" >
   <i type="int" name="NPAR">     4</i>
   <i type="int" name="NSIM">     4</i>
   <i type="int" name="NBLK">    -1</i>
   <i type="logical" name="LPLANE"> T  </i>
   <i type="logical" name="LSCALAPACK"> T  </i>
   <i type="logical" name="LSCAAWARE"> F  </i>
   <i type="logical" name="LSCALU"> F  </i>
   <i type="logical" name="LASYNC"> F  </i>
   <i type="logical" name="LORBITALREAL"> F  </i>
  </separator>
  <separator name="miscellaneous" >
   <i type="int" name="IDIOT">     3</i>
   <i type="int" name="ISPECIAL">     0</i>
   <i type="logical" name="LMUSIC"> F  </i>
   <v name="POMASS">    118.71000000     78.96000000</v>
   <v name="DARWINR">      0.00000000      0.00000000</v>
   <v name="DARWINV">      1.00000000      1.00000000</v>
   <i type="logical" name="LCORR"> T  </i>
  </separator>
  <i type="logical" name="GGA_COMPAT"> T  </i>
  <i type="logical" name="LBERRY"> F  </i>
  <i type="int" name="ICORELEVEL">     0</i>
  <i type="logical" name="LDAU"> F  </i>
  <i type="int" name="I_CONSTRAINED_M">     0</i>
  <separator name="electronic exchange-correlation" >
   <i type="string" name="GGA">--</i>
   <i type="int" name="VOSKOWN">     0</i>
   <i type="logical" name="LHFCALC"> F  </i>
   <i type="string" name="PRECFOCK"></i>
   <i type="logical" name="LSYMGRAD"> F  </i>
   <i type="logical" name="LHFONE"> F  </i>
   <i type="logical" name="LRHFCALC"> F  </i>
   <i type="logical" name="LTHOMAS"> F  </i>
   <i type="logical" name="LMODELHF"> F  </i>
   <i name="ENCUT4O">     -1.00000000</i>
   <i type="int" name="EXXOEP">     0</i>
   <i type="int" name="FOURORBIT">     0</i>
   <i name="AEXX">      0.00000000</i>
   <i name="HFALPHA">      0.00000000</i>
   <i name="MCALPHA">      0.00000000</i>
   <i name="ALDAX">      1.00000000</i>
   <i name="AGGAX">      1.00000000</i>
   <i name="ALDAC">      1.00000000</i>
   <i name="AGGAC">      1.00000000</i>
   <i type="int" name="NKREDX">     1</i>
   <i type="int" name="NKREDY">     1</i>
   <i type="int" name="NKREDZ">     1</i>
   <i type="logical" name="SHIFTRED"> F  </i>
   <i type="logical" name="ODDONLY"> F  </i>
   <i type="logical" name="EVENONLY"> F  </i>
   <i type="int" name="LMAXFOCK">     0</i>
   <i type="int" name="NMAXFOCKAE">     0</i>
   <i type="logical" name="LFOCKAEDFT"> F  </i>
   <i name="HFSCREEN">      0.00000000</i>
   <i name="HFSCREENC">      0.00000000</i>
   <i type="int" name="NBANDSGWLOW">     0</i>
  </separator>
  <separator name="vdW DFT" >
   <i type="logical" name="LUSE_VDW"> F  </i>
   <i name="Zab_VDW">     -0.84910000</i>
   <i name="PARAM1">      0.12340000</i>
   <i name="PARAM2">      1.00000000</i>
   <i name="PARAM3">      0.00000000</i>
  </separator>
  <separator name="model GW" >
   <i type="int" name="MODEL_GW">     0</i>
   <i name="MODEL_EPS0">     16.17350923</i>
   <i name="MODEL_ALPHA">      1.00000000</i>
  </separator>
  <separator name="linear response parameters" >
   <i type="logical" name="LEPSILON"> F  </i>
   <i type="logical" name="LRPA"> F  </i>
   <i type="logical" name="LNABLA"> F  </i>
   <i type="logical" name="LVEL"> F  </i>
   <i type="int" name="KINTER">     0</i>
   <i name="CSHIFT">      0.10000000</i>
   <i name="OMEGAMAX">     -1.00000000</i>
   <i name="DEG_THRESHOLD">      0.00200000</i>
   <i name="RTIME">     -0.10000000</i>
   <i name="WPLASMAI">      0.00000000</i>
   <v name="DFIELD">      0.00000000      0.00000000      0.00000000</v>
   <v name="WPLASMA">      0.00000000      0.00000000      0.00000000      0.00000000      0.00000000      0.00000000      0.00000000      0.00000000      0.00000000</v>
  </separator>
  <separator name="orbital magnetization" >
   <i type="logical" name="NUCIND"> F  </i>
   <v name="MAGPOS">      0.00000000      0.00000000      0.00000000</v>
   <i type="logical" name="LNICSALL"> T  </i>
   <i type="logical" name="ORBITALMAG"> F  </i>
   <i type="logical" name="LMAGBLOCH"> F  </i>
   <i type="logical" name="LCHIMAG"> F  </i>
   <i type="logical" name="LGAUGE"> T  </i>
   <i type="int" name="MAGATOM">     0</i>
   <v name="MAGDIPOL">      0.00000000      0.00000000      0.00000000</v>
   <v name="AVECCONST">      0.00000000      0.00000000      0.00000000</v>
  </separator>
  <separator name="response functions" >
   <i type="logical" name="LADDER"> F  </i>
   <i type="logical" name="LRPAFORCE"> F  </i>
   <i type="logical" name="LFXC"> F  </i>
   <i type="logical" name="LHARTREE"> T  </i>
   <i type="int" name="IBSE">     0</i>
   <v type="int" name="KPOINT">    -1     0     0     0</v>
   <i type="logical" name="LTCTE"> F  </i>
   <i type="logical" name="LTETE"> F  </i>
   <i type="logical" name="LTRIPLET"> F  </i>
   <i type="logical" name="LFXCEPS"> F  </i>
   <i type="logical" name="LFXHEG"> F  </i>
   <i type="int" name="NATURALO">     2</i>
   <i type="logical" name="L2ORDER"> F  </i>
   <i type="logical" name="LMP2LT"> F  </i>
   <i type="logical" name="LUSEW"> F  </i>
   <i name="ENCUTGW">     -2.00000000</i>
   <i name="ENCUTGWSOFT">     -2.00000000</i>
   <i name="ENCUTLF">     -1.00000000</i>
   <i type="int" name="LMAXMP2">    -1</i>
   <i name="SCISSOR">      0.00000000</i>
   <i type="int" name="NOMEGA">     0</i>
   <i type="int" name="NOMEGAR">     0</i>
   <i type="int" name="NBANDSGW">    -1</i>
   <i type="int" name="NBANDSO">    -1</i>
   <i type="int" name="NBANDSV">    -1</i>
   <i type="int" name="NELM">     1</i>
   <i type="int" name="NELMHF">     1</i>
   <i type="int" name="DIM">     3</i>
   <i type="int" name="ANTIRES">     0</i>
   <i name="OMEGAMAX">    -30.00000000</i>
   <i name="OMEGAMIN">    -30.00000000</i>
   <i name="OMEGATL">   -200.00000000</i>
   <i type="int" name="OMEGAGRID">   140</i>
   <i name="CSHIFT">     -0.10000000</i>
   <i type="logical" name="SELFENERGY"> F  </i>
   <i type="logical" name="LSPECTRAL"> F  </i>
   <i type="logical" name="LSPECTRALGW"> F  </i>
   <i type="logical" name="LSINGLES"> F  </i>
   <i type="logical" name="LFERMIGW"> F  </i>
   <i type="logical" name="ODDONLYGW"> F  </i>
   <i type="logical" name="EVENONLYGW"> F  </i>
   <i type="int" name="NKREDLFX">     1</i>
   <i type="int" name="NKREDLFY">     1</i>
   <i type="int" name="NKREDLFZ">     1</i>
   <i type="int" name="MAXMEM">  2800</i>
   <i type="int" name="TELESCOPE">     0</i>
   <i type="int" name="TAUPAR">     1</i>
   <i type="int" name="OMEGAPAR">    -1</i>
   <i name="LAMBDA">      1.00000000</i>
  </separator>
  <separator name="External order field" >
   <i name="OFIELD_KAPPA">      0.00000000</i>
   <v name="OFIELD_K">      0.00000000      0.00000000      0.00000000</v>
   <i name="OFIELD_Q6_NEAR">      0.00000000</i>
   <i name="OFIELD_Q6_FAR">      0.00000000</i>
   <i name="OFIELD_A">      0.00000000</i>
  </separator>
 </parameters>
 <atominfo>
  <atoms>       4 </atoms>
  <types>       2 </types>
  <array name="atoms" >
   <dimension dim="1">ion</dimension>
   <field type="string">element</field>
   <field type="int">atomtype</field>
   <set>
    <rc><c>Sn</c><c>   1</c></rc>
    <rc><c>Sn</c><c>   1</c></rc>
    <rc><c>Se</c><c>   2</c></rc>
    <rc><c>Se</c><c>   2</c></rc>
   </set>
  </array>
  <array name="atomtypes" >
   <dimension dim="1">type</dimension>
   <field type="int">atomspertype</field>
   <field type="string">element</field>
   <field>mass</field>
   <field>valence</field>
   <field type="string">pseudopotential</field>
   <set>
    <rc><c>   2</c><c>Sn</c><c>    118.71000000</c><c>     14.00000000</c><c>  PAW_PBE Sn_d 06Sep2000                </c></rc>
    <rc><c>   2</c><c>Se</c><c>     78.96000000</c><c>      6.00000000</c><c>  PAW_PBE Se 06Sep2000                  </c></rc>
   </set>
  </array>
 </atominfo>
 <structure name="initialpos" >
  <crystal>
   <varray name="basis" >
    <v>       2.13818630      -5.92642563      -0.00000000 </v>
    <v>       2.13818630       5.92642563       0.00000000 </v>
    <v>       0.00000000       0.00000000       4.25446176 </v>
   </varray>
   <i name="volume">    107.82339484 </i>
   <varray name="rec_basis" >
    <v>       0.23384305      -0.08436789       0.00000000 </v>
    <v>       0.23384305       0.08436789      -0.00000000 </v>
    <v>       0.00000000      -0.00000000       0.23504736 </v>
   </varray>
  </crystal>
  <varray name="positions" >
   <v>       0.37460531       0.62539469       0.25000000 </v>
   <v>       0.62539469       0.37460531       0.75000000 </v>
   <v>       0.14358059       0.85641941       0.25000000 </v>
   <v>       0.85641941       0.14358059       0.75000000 </v>
  </varray>
 </structure>
 <calculation>
  <scstep>
   <time name="total">   25.63   25.73</time>
   <energy>
    <i name="alphaZ">    102.47134081 </i>
    <i name="ewald">  -2980.65272093 </i>
    <i name="hartreedc">  -1185.87153509 </i>
    <i name="XCdc">    112.56260140 </i>
    <i name="pawpsdc">   4141.82573238 </i>
    <i name="pawaedc">  -4188.41122781 </i>
    <i name="eentropy">     -0.00006627 </i>
    <i name="bandstr">    145.77985176 </i>
    <i name="atom">   4300.47238994 </i>
    <i name="e_fr_energy">    448.17636617 </i>
    <i name="e_wo_entrp">    448.17643244 </i>
    <i name="e_0_energy">    448.17639931 </i>
   </energy>
  </scstep>
  <scstep>
   <time name="total">   22.64   22.78</time>
   <energy>
    <i name="e_fr_energy">     62.86800347 </i>
    <i name="e_wo_entrp">     62.86811641 </i>
    <i name="e_0_energy">     62.86805994 </i>
   </energy>
  </scstep>
  <scstep>
   <time name="total">   24.33   24.55</time>
   <energy>
    <i name="e_fr_energy">    -11.78964450 </i>
    <i name="e_wo_entrp">    -11.78964450 </i>
    <i name="e_0_energy">    -11.78964450 </i>
   </energy>
  </scstep>
  <scstep>
   <time name="total">   25.62   25.88</time>
   <energy>
    <i name="e_fr_energy">    -15.63160960 </i>
    <i name="e_wo_entrp">    -15.63160960 </i>
    <i name="e_0_energy">    -15.63160960 </i>
   </energy>
  </scstep>
  <scstep>
   <time name="total">   26.00   26.25</time>
   <energy>
    <i name="e_fr_energy">    -15.70972360 </i>
    <i name="e_wo_entrp">    -15.70972360 </i>
    <i name="e_0_energy">    -15.70972360 </i>
   </energy>
  </scstep>
  <scstep>
   <time name="total">   15.81   15.83</time>
   <energy>
    <i name="e_fr_energy">    -15.70972360 </i>
    <i name="e_wo_entrp">    -15.70972360 </i>
    <i name="e_0_energy">    -15.70972360 </i>
   </energy>
  </scstep>
  <scstep>
   <time name="total">   15.82   16.01</time>
   <energy>
    <i name="e_fr_energy">    -15.71188388 </i>
    <i name="e_wo_entrp">    -15.71188388 </i>
    <i name="e_0_energy">    -15.71188388 </i>
   </energy>
  </scstep>
  <scstep>
   <time name="total">   15.78   15.80</time>
   <energy>
    <i name="e_fr_energy">    -15.71244064 </i>
    <i name="e_wo_entrp">    -15.71244064 </i>
    <i name="e_0_energy">    -15.71244064 </i>
   </energy>
  </scstep>
  <scstep>
   <time name="total">   15.79   15.92</time>
   <energy>
    <i name="e_fr_energy">    -15.71263807 </i>
    <i name="e_wo_entrp">    -15.71263807 </i>
    <i name="e_0_energy">    -15.71263807 </i>
   </energy>
  </scstep>
  <scstep>
   <time name="total">   15.79   15.82</time>
   <energy>
    <i name="e_fr_energy">    -15.71266797 </i>
    <i name="e_wo_entrp">    -15.71266797 </i>
    <i name="e_0_energy">    -15.71266797 </i>
   </energy>
  </scstep>
  <scstep>
   <time name="total">   15.75   15.84</time>
   <energy>
    <i name="e_fr_energy">    -15.71267602 </i>
    <i name="e_wo_entrp">    -15.71267602 </i>
    <i name="e_0_energy">    -15.71267602 </i>
   </energy>
  </scstep>
  <scstep>
   <time name="total">   15.68   15.70</time>
   <energy>
    <i name="e_fr_energy">    -15.71267800 </i>
    <i name="e_wo_entrp">    -15.71267800 </i>
    <i name="e_0_energy">    -15.71267800 </i>
   </energy>
  </scstep>
  <scstep>
   <time name="total">   15.73   15.88</time>
   <energy>
    <i name="e_fr_energy">    -15.71267836 </i>
    <i name="e_wo_entrp">    -15.71267836 </i>
    <i name="e_0_energy">    -15.71267836 </i>
   </energy>
  </scstep>
  <scstep>
   <time name="total">   20.00   20.60</time>
   <energy>
    <i name="alphaZ">    102.47134081 </i>
    <i name="ewald">  -2980.65272093 </i>
    <i name="hartreedc">  -1185.87153509 </i>
    <i name="XCdc">    112.56260140 </i>
    <i name="pawpsdc">   4141.82573238 </i>
    <i name="pawaedc">  -4188.41122781 </i>
    <i name="eentropy">     -0.00000000 </i>
    <i name="bandstr">   -318.10925911 </i>
    <i name="atom">   4300.47238994 </i>
    <i name="e_fr_energy">    -15.71267843 </i>
    <i name="e_wo_entrp">    -15.71267843 </i>
    <i name="e_0_energy">    -15.71267843 </i>
   </energy>
  </scstep>
  <structure>
   <crystal>
    <varray name="basis" >
     <v>       2.13818630      -5.92642563      -0.00000000 </v>
     <v>       2.13818630       5.92642563       0.00000000 </v>
     <v>       0.00000000       0.00000000       4.25446176 </v>
    </varray>
    <i name="volume">    107.82339484 </i>
    <varray name="rec_basis" >
     <v>       0.23384305      -0.08436789       0.00000000 </v>
     <v>       0.23384305       0.08436789      -0.00000000 </v>
     <v>       0.00000000      -0.00000000       0.23504736 </v>
    </varray>
   </crystal>
   <varray name="positions" >
    <v>       0.37460531       0.62539469       0.25000000 </v>
    <v>       0.62539469       0.37460531       0.75000000 </v>
    <v>       0.14358059       0.85641941       0.25000000 </v>
    <v>       0.85641941       0.14358059       0.75000000 </v>
   </varray>
  </structure>
  <varray name="forces" >
   <v>       0.00000000       0.17815176      -0.00000000 </v>
   <v>       0.00000000      -0.17815176      -0.00000000 </v>
   <v>       0.00000000      -0.22581210       0.00000000 </v>
   <v>       0.00000000       0.22581210       0.00000000 </v>
  </varray>
  <varray name="stress" >
   <v>      18.54175393       0.00000000       0.00000000 </v>
   <v>       0.00000000     -18.21304205       0.00000000 </v>
   <v>       0.00000000       0.00000000       4.87012602 </v>
  </varray>
  <energy>
   <i name="e_fr_energy">    -16.59051439 </i>
   <i name="e_wo_entrp">    -16.59051439 </i>
   <i name="e_0_energy">     -0.00000000 </i>
  </energy>
  <time name="totalsc">  289.67  292.07</time>
  <eigenvalues>
   <array>
    <dimension dim="1">band</dimension>
    <dimension dim="2">kpoint</dimension>
    <dimension dim="3">spin</dimension>
    <field>eigene</field>
    <field>occ</field>
    <set>
     <set comment="spin 1">
      <set comment="kpoint 1">
       <r>  -16.0401    1.0000 </r>
       <r>  -16.0384    1.0000 </r>
       <r>  -16.0298    1.0000 </r>
       <r>  -16.0293    1.0000 </r>
       <r>  -16.0116    1.0000 </r>
       <r>  -16.0101    1.0000 </r>
       <r>  -15.9902    1.0000 </r>
       <r>  -15.9838    1.0000 </r>
       <r>  -15.9833    1.0000 </r>
       <r>  -15.9587    1.0000 </r>
       <r>   -8.3000    1.0000 </r>
       <r>   -6.8557    1.0000 </r>
       <r>   -0.5821    1.0000 </r>
       <r>   -0.0133    1.0000 </r>
       <r>    0.4889    1.0000 </r>
       <r>    1.9602    1.0000 </r>
       <r>    2.3061    1.0000 </r>
       <r>    3.0510    1.0000 </r>
       <r>    3.6940    1.0000 </r>
       <r>    4.8036    1.0000 </r>
       <r>    8.9243    0.0000 </r>
       <r>    9.2690    0.0000 </r>
       <r>    9.4175    0.0000 </r>
       <r>   10.0268    0.0000 </r>
       <r>   10.1448    0.0000 </r>
       <r>   10.4243    0.0000 </r>
       <r>   10.6930    0.0000 </r>
       <r>   11.6543    0.0000 </r>
       <r>   11.9027    0.0000 </r>
       <r>   14.1187    0.0000 </r>
       <r>   14.2738    0.0000 </r>
       <r>   14.4787    0.0000 </r>
       <r>   14.8123    0.0000 </r>
       <r>   15.0308    0.0000 </r>
       <r>   15.1313    0.0000 </r>
       <r>   15.4083    0.0000 </r>
       <r>   16.5949    0.0000 </r>
       <r>   19.4221    0.0000 </r>
       <r>   20.5213    0.0000 </r>
       <r>   21.2112    0.0000 </r>
       <r>   21.3459    0.0000 </r>
       <r>   21.9208    0.0000 </r>
       <r>   22.0110    0.0000 </r>
       <r>   22.5823    0.0000 </r>
       <r>   22.5831    0.0000 </r>
       <r>   22.8428    0.0000 </r>
       <r>   22.9263    0.0000 </r>
       <r>   23.0093    0.0000 </r>
      </set>
      <set comment="kpoint 2">
       <r>  -16.0401    1.0000 </r>
       <r>  -16.0384    1.0000 </r>
       <r>  -16.0298    1.0000 </r>
       <r>  -16.0293    1.0000 </r>
       <r>  -16.0116    1.0000 </r>
       <r>  -16.0101    1.0000 </r>
       <r>  -15.9902    1.0000 </r>
       <r>  -15.9838    1.0000 </r>
       <r>  -15.9833    1.0000 </r>
       <r>  -15.9587    1.0000 </r>
       <r>   -8.2991    1.0000 </r>
       <r>   -6.8557    1.0000 </r>
       <r>   -0.5854    1.0000 </r>
       <r>   -0.0177    1.0000 </r>
       <r>    0.4880    1.0000 </r>
       <r>    1.9616    1.0000 </r>
       <r>    2.3093    1.0000 </r>
       <r>    3.0579    1.0000 </r>
       <r>    3.6950    1.0000 </r>
       <r>    4.8032    1.0000 </r>
       <r>    8.9289    0.0000 </r>
       <r>    9.2128    0.0000 </r>
       <r>    9.4683    0.0000 </r>
       <r>   10.0207    0.0000 </r>
       <r>   10.1355    0.0000 </r>
       <r>   10.4187    0.0000 </r>
       <r>   10.6927    0.0000 </r>
       <r>   11.6557    0.0000 </r>
       <r>   11.9011    0.0000 </r>
       <r>   14.1310    0.0000 </r>
       <r>   14.2626    0.0000 </r>
       <r>   14.4414    0.0000 </r>
       <r>   14.8502    0.0000 </r>
       <r>   15.0419    0.0000 </r>
       <r>   15.1216    0.0000 </r>
       <r>   15.4410    0.0000 </r>
       <r>   16.6077    0.0000 </r>
       <r>   19.4171    0.0000 </r>
       <r>   20.5113    0.0000 </r>
       <r>   21.2082    0.0000 </r>
       <r>   21.3412    0.0000 </r>
       <r>   21.9046    0.0000 </r>
       <r>   21.9623    0.0000 </r>
       <r>   22.5854    0.0000 </r>
       <r>   22.6480    0.0000 </r>
       <r>   22.7705    0.0000 </r>
       <r>   23.0063    0.0000 </r>
       <r>   23.0756    0.0000 </r>
      </set>
      <set comment="kpoint 3">
       <r>  -16.0400    1.0000 </r>
       <r>  -16.0384    1.0000 </r>
       <r>  -16.0298    1.0000 </r>
       <r>  -16.0293    1.0000 </r>
       <r>  -16.0115    1.0000 </r>
       <r>  -16.0101    1.0000 </r>
       <r>  -15.9902    1.0000 </r>
       <r>  -15.9838    1.0000 </r>
       <r>  -15.9833    1.0000 </r>
       <r>  -15.9587    1.0000 </r>
       <r>   -8.2965    1.0000 </r>
       <r>   -6.8556    1.0000 </r>
       <r>   -0.5953    1.0000 </r>
       <r>   -0.0311    1.0000 </r>
       <r>    0.4855    1.0000 </r>
       <r>    1.9659    1.0000 </r>
       <r>    2.3187    1.0000 </r>
       <r>    3.0781    1.0000 </r>
       <r>    3.6978    1.0000 </r>
       <r>    4.8020    1.0000 </r>
       <r>    8.9424    0.0000 </r>
       <r>    9.1123    0.0000 </r>
       <r>    9.5529    0.0000 </r>
       <r>   10.0024    0.0000 </r>
       <r>   10.1081    0.0000 </r>
       <r>   10.4018    0.0000 </r>
       <r>   10.6924    0.0000 </r>
       <r>   11.6600    0.0000 </r>
       <r>   11.8967    0.0000 </r>
       <r>   14.1674    0.0000 </r>
       <r>   14.2306    0.0000 </r>
       <r>   14.3572    0.0000 </r>
       <r>   14.9366    0.0000 </r>
       <r>   15.0748    0.0000 </r>
       <r>   15.1054    0.0000 </r>
       <r>   15.5245    0.0000 </r>
       <r>   16.6453    0.0000 </r>
       <r>   19.4021    0.0000 </r>
       <r>   20.4818    0.0000 </r>
       <r>   21.1975    0.0000 </r>
       <r>   21.3247    0.0000 </r>
       <r>   21.8509    0.0000 </r>
       <r>   21.8532    0.0000 </r>
       <r>   22.5883    0.0000 </r>
       <r>   22.6810    0.0000 </r>
       <r>   22.7722    0.0000 </r>
       <r>   23.0747    0.0000 </r>
       <r>   23.1313    0.0000 </r>
      </set>
      <set comment="kpoint 4">
       <r>  -16.0400    1.0000 </r>
       <r>  -16.0383    1.0000 </r>
       <r>  -16.0299    1.0000 </r>
       <r>  -16.0294    1.0000 </r>
       <r>  -16.0114    1.0000 </r>
       <r>  -16.0100    1.0000 </r>
       <r>  -15.9903    1.0000 </r>
       <r>  -15.9839    1.0000 </r>
       <r>  -15.9833    1.0000 </r>
       <r>  -15.9587    1.0000 </r>
       <r>   -8.2921    1.0000 </r>
       <r>   -6.8554    1.0000 </r>
       <r>   -0.6114    1.0000 </r>
       <r>   -0.0538    1.0000 </r>
       <r>    0.4823    1.0000 </r>
       <r>    1.9730    1.0000 </r>
       <r>    2.3343    1.0000 </r>
       <r>    3.1112    1.0000 </r>
       <r>    3.7026    1.0000 </r>
       <r>    4.8000    1.0000 </r>
       <r>    8.9647    0.0000 </r>
       <r>    9.0005    0.0000 </r>
       <r>    9.6377    0.0000 </r>
       <r>    9.9720    0.0000 </r>
       <r>   10.0636    0.0000 </r>
       <r>   10.3729    0.0000 </r>
       <r>   10.6929    0.0000 </r>
       <r>   11.6670    0.0000 </r>
       <r>   11.8901    0.0000 </r>
       <r>   14.1823    0.0000 </r>
       <r>   14.2269    0.0000 </r>
       <r>   14.2556    0.0000 </r>
       <r>   15.0426    0.0000 </r>
       <r>   15.0984    0.0000 </r>
       <r>   15.1287    0.0000 </r>
       <r>   15.6383    0.0000 </r>
       <r>   16.7065    0.0000 </r>
       <r>   19.3772    0.0000 </r>
       <r>   20.4336    0.0000 </r>
       <r>   21.1736    0.0000 </r>
       <r>   21.3024    0.0000 </r>
       <r>   21.7321    0.0000 </r>
       <r>   21.7724    0.0000 </r>
       <r>   22.5930    0.0000 </r>
       <r>   22.6071    0.0000 </r>
       <r>   22.9368    0.0000 </r>
       <r>   23.1429    0.0000 </r>
       <r>   23.2773    0.0000 </r>
      </set>
      <set comment="kpoint 5">
       <r>  -16.0399    1.0000 </r>
       <r>  -16.0381    1.0000 </r>
       <r>  -16.0300    1.0000 </r>
       <r>  -16.0294    1.0000 </r>
       <r>  -16.0112    1.0000 </r>
       <r>  -16.0100    1.0000 </r>
       <r>  -15.9903    1.0000 </r>
       <r>  -15.9839    1.0000 </r>
       <r>  -15.9833    1.0000 </r>
       <r>  -15.9588    1.0000 </r>
       <r>   -8.2859    1.0000 </r>
       <r>   -6.8551    1.0000 </r>
       <r>   -0.6336    1.0000 </r>
       <r>   -0.0863    1.0000 </r>
       <r>    0.4799    1.0000 </r>
       <r>    1.9829    1.0000 </r>
       <r>    2.3558    1.0000 </r>
       <r>    3.1562    1.0000 </r>
       <r>    3.7093    1.0000 </r>
       <r>    4.7972    1.0000 </r>
       <r>    8.8829    0.0000 </r>
       <r>    8.9956    0.0000 </r>
       <r>    9.7175    0.0000 </r>
       <r>    9.9298    0.0000 </r>
       <r>   10.0034    0.0000 </r>
       <r>   10.3322    0.0000 </r>
       <r>   10.6955    0.0000 </r>
       <r>   11.6767    0.0000 </r>
       <r>   11.8823    0.0000 </r>
       <r>   14.1238    0.0000 </r>
       <r>   14.1475    0.0000 </r>
       <r>   14.3080    0.0000 </r>
       <r>   15.1057    0.0000 </r>
       <r>   15.1587    0.0000 </r>
       <r>   15.2024    0.0000 </r>
       <r>   15.7717    0.0000 </r>
       <r>   16.7891    0.0000 </r>
       <r>   19.3423    0.0000 </r>
       <r>   20.3683    0.0000 </r>
       <r>   21.1264    0.0000 </r>
       <r>   21.2776    0.0000 </r>
       <r>   21.6271    0.0000 </r>
       <r>   21.6747    0.0000 </r>
       <r>   22.5461    0.0000 </r>
       <r>   22.5987    0.0000 </r>
       <r>   23.1214    0.0000 </r>
       <r>   23.2917    0.0000 </r>
       <r>   23.4224    0.0000 </r>
      </set>
      <set comment="kpoint 6">
       <r>  -16.0398    1.0000 </r>
       <r>  -16.0380    1.0000 </r>
       <r>  -16.0302    1.0000 </r>
       <r>  -16.0295    1.0000 </r>
       <r>  -16.0110    1.0000 </r>
       <r>  -16.0099    1.0000 </r>
       <r>  -15.9903    1.0000 </r>
       <r>  -15.9840    1.0000 </r>
       <r>  -15.9833    1.0000 </r>
       <r>  -15.9588    1.0000 </r>
       <r>   -8.2779    1.0000 </r>
       <r>   -6.8549    1.0000 </r>
       <r>   -0.6614    1.0000 </r>
       <r>   -0.1286    1.0000 </r>
       <r>    0.4795    1.0000 </r>
       <r>    1.9957    1.0000 </r>
       <r>    2.3829    1.0000 </r>
       <r>    3.2120    1.0000 </r>
       <r>    3.7178    1.0000 </r>
       <r>    4.7936    1.0000 </r>
       <r>    8.7609    0.0000 </r>
       <r>    9.0345    0.0000 </r>
       <r>    9.7901    0.0000 </r>
       <r>    9.8763    0.0000 </r>
       <r>    9.9296    0.0000 </r>
       <r>   10.2800    0.0000 </r>
       <r>   10.7008    0.0000 </r>
       <r>   11.6894    0.0000 </r>
       <r>   11.8744    0.0000 </r>
       <r>   14.0371    0.0000 </r>
       <r>   14.0607    0.0000 </r>
       <r>   14.4088    0.0000 </r>
       <r>   15.1275    0.0000 </r>
       <r>   15.2819    0.0000 </r>
       <r>   15.2942    0.0000 </r>
       <r>   15.9186    0.0000 </r>
       <r>   16.8906    0.0000 </r>
       <r>   19.2977    0.0000 </r>
       <r>   20.2879    0.0000 </r>
       <r>   21.0454    0.0000 </r>
       <r>   21.2545    0.0000 </r>
       <r>   21.5554    0.0000 </r>
       <r>   21.5646    0.0000 </r>
       <r>   22.5006    0.0000 </r>
       <r>   22.6064    0.0000 </r>
       <r>   23.3114    0.0000 </r>
       <r>   23.3533    0.0000 </r>
       <r>   23.5847    0.0000 </r>
      </set>
      <set comment="kpoint 7">
       <r>  -16.0396    1.0000 </r>
       <r>  -16.0378    1.0000 </r>
       <r>  -16.0304    1.0000 </r>
       <r>  -16.0296    1.0000 </r>
       <r>  -16.0107    1.0000 </r>
       <r>  -16.0098    1.0000 </r>
       <r>  -15.9904    1.0000 </r>
       <r>  -15.9841    1.0000 </r>
       <r>  -15.9833    1.0000 </r>
       <r>  -15.9588    1.0000 </r>
       <r>   -8.2683    1.0000 </r>
       <r>   -6.8546    1.0000 </r>
       <r>   -0.6943    1.0000 </r>
       <r>   -0.1806    1.0000 </r>
       <r>    0.4820    1.0000 </r>
       <r>    2.0112    1.0000 </r>
       <r>    2.4151    1.0000 </r>
       <r>    3.2774    1.0000 </r>
       <r>    3.7281    1.0000 </r>
       <r>    4.7891    1.0000 </r>
       <r>    8.6356    0.0000 </r>
       <r>    9.0809    0.0000 </r>
       <r>    9.8120    0.0000 </r>
       <r>    9.8441    0.0000 </r>
       <r>    9.8544    0.0000 </r>
       <r>   10.2177    0.0000 </r>
       <r>   10.7093    0.0000 </r>
       <r>   11.7052    0.0000 </r>
       <r>   11.8676    0.0000 </r>
       <r>   13.9265    0.0000 </r>
       <r>   13.9976    0.0000 </r>
       <r>   14.5274    0.0000 </r>
       <r>   15.1624    0.0000 </r>
       <r>   15.4024    0.0000 </r>
       <r>   15.4113    0.0000 </r>
       <r>   16.0757    0.0000 </r>
       <r>   17.0082    0.0000 </r>
       <r>   19.2437    0.0000 </r>
       <r>   20.1944    0.0000 </r>
       <r>   20.9309    0.0000 </r>
       <r>   21.2365    0.0000 </r>
       <r>   21.4470    0.0000 </r>
       <r>   21.5194    0.0000 </r>
       <r>   22.4610    0.0000 </r>
       <r>   22.6126    0.0000 </r>
       <r>   23.4834    0.0000 </r>
       <r>   23.5238    0.0000 </r>
       <r>   23.7549    0.0000 </r>
      </set>
      <set comment="kpoint 8">
       <r>  -16.0395    1.0000 </r>
       <r>  -16.0376    1.0000 </r>
       <r>  -16.0306    1.0000 </r>
       <r>  -16.0298    1.0000 </r>
       <r>  -16.0103    1.0000 </r>
       <r>  -16.0097    1.0000 </r>
       <r>  -15.9905    1.0000 </r>
       <r>  -15.9842    1.0000 </r>
       <r>  -15.9833    1.0000 </r>
       <r>  -15.9589    1.0000 </r>
       <r>   -8.2569    1.0000 </r>
       <r>   -6.8544    1.0000 </r>
       <r>   -0.7316    1.0000 </r>
       <r>   -0.2415    1.0000 </r>
       <r>    0.4881    1.0000 </r>
       <r>    2.0296    1.0000 </r>
       <r>    2.4521    1.0000 </r>
       <r>    3.3512    1.0000 </r>
       <r>    3.7401    1.0000 </r>
       <r>    4.7838    1.0000 </r>
       <r>    8.5074    0.0000 </r>
       <r>    9.1335    0.0000 </r>
       <r>    9.7375    0.0000 </r>
       <r>    9.7489    0.0000 </r>
       <r>    9.9090    0.0000 </r>
       <r>   10.1473    0.0000 </r>
       <r>   10.7210    0.0000 </r>
       <r>   11.7249    0.0000 </r>
       <r>   11.8628    0.0000 </r>
       <r>   13.8169    0.0000 </r>
       <r>   13.9379    0.0000 </r>
       <r>   14.6618    0.0000 </r>
       <r>   15.2088    0.0000 </r>
       <r>   15.5253    0.0000 </r>
       <r>   15.5466    0.0000 </r>
       <r>   16.2406    0.0000 </r>
       <r>   17.1393    0.0000 </r>
       <r>   19.1812    0.0000 </r>
       <r>   20.0902    0.0000 </r>
       <r>   20.7940    0.0000 </r>
       <r>   21.2262    0.0000 </r>
       <r>   21.3262    0.0000 </r>
       <r>   21.5100    0.0000 </r>
       <r>   22.4350    0.0000 </r>
       <r>   22.6202    0.0000 </r>
       <r>   23.6291    0.0000 </r>
       <r>   23.7142    0.0000 </r>
       <r>   23.9276    0.0000 </r>
      </set>
      <set comment="kpoint 9">
       <r>  -16.0393    1.0000 </r>
       <r>  -16.0373    1.0000 </r>
       <r>  -16.0308    1.0000 </r>
       <r>  -16.0299    1.0000 </r>
       <r>  -16.0100    1.0000 </r>
       <r>  -16.0096    1.0000 </r>
       <r>  -15.9905    1.0000 </r>
       <r>  -15.9844    1.0000 </r>
       <r>  -15.9833    1.0000 </r>
       <r>  -15.9589    1.0000 </r>
       <r>   -8.2438    1.0000 </r>
       <r>   -6.8542    1.0000 </r>
       <r>   -0.7729    1.0000 </r>
       <r>   -0.3104    1.0000 </r>
       <r>    0.4980    1.0000 </r>
       <r>    2.0507    1.0000 </r>
       <r>    2.4935    1.0000 </r>
       <r>    3.4321    1.0000 </r>
       <r>    3.7537    1.0000 </r>
       <r>    4.7776    1.0000 </r>
       <r>    8.3770    0.0000 </r>
       <r>    9.1905    0.0000 </r>
       <r>    9.6460    0.0000 </r>
       <r>    9.6538    0.0000 </r>
       <r>    9.9525    0.0000 </r>
       <r>   10.0715    0.0000 </r>
       <r>   10.7360    0.0000 </r>
       <r>   11.7494    0.0000 </r>
       <r>   11.8609    0.0000 </r>
       <r>   13.7093    0.0000 </r>
       <r>   13.8839    0.0000 </r>
       <r>   14.8101    0.0000 </r>
       <r>   15.2655    0.0000 </r>
       <r>   15.6611    0.0000 </r>
       <r>   15.6874    0.0000 </r>
       <r>   16.4117    0.0000 </r>
       <r>   17.2814    0.0000 </r>
       <r>   19.1113    0.0000 </r>
       <r>   19.9771    0.0000 </r>
       <r>   20.6450    0.0000 </r>
       <r>   21.2053    0.0000 </r>
       <r>   21.2253    0.0000 </r>
       <r>   21.5177    0.0000 </r>
       <r>   22.4181    0.0000 </r>
       <r>   22.6273    0.0000 </r>
       <r>   23.7324    0.0000 </r>
       <r>   23.9292    0.0000 </r>
       <r>   24.1223    0.0000 </r>
      </set>
      <set comment="kpoint 10">
       <r>  -16.0391    1.0000 </r>
       <r>  -16.0370    1.0000 </r>
       <r>  -16.0311    1.0000 </r>
       <r>  -16.0301    1.0000 </r>
       <r>  -16.0095    1.0000 </r>
       <r>  -16.0095    1.0000 </r>
       <r>  -15.9906    1.0000 </r>
       <r>  -15.9845    1.0000 </r>
       <r>  -15.9833    1.0000 </r>
       <r>  -15.9590    1.0000 </r>
       <r>   -8.2291    1.0000 </r>
       <r>   -6.8543    1.0000 </r>
       <r>   -0.8175    1.0000 </r>
       <r>   -0.3862    1.0000 </r>
       <r>    0.5117    1.0000 </r>
       <r>    2.0745    1.0000 </r>
       <r>    2.5389    1.0000 </r>
       <r>    3.5191    1.0000 </r>
       <r>    3.7688    1.0000 </r>
       <r>    4.7705    1.0000 </r>
       <r>    8.2447    0.0000 </r>
       <r>    9.2487    0.0000 </r>
       <r>    9.5371    0.0000 </r>
       <r>    9.5617    0.0000 </r>
       <r>    9.9838    0.0000 </r>
       <r>    9.9944    0.0000 </r>
       <r>   10.7543    0.0000 </r>
       <r>   11.7800    0.0000 </r>
       <r>   11.8625    0.0000 </r>
       <r>   13.6047    0.0000 </r>
       <r>   13.8369    0.0000 </r>
       <r>   14.9706    0.0000 </r>
       <r>   15.3312    0.0000 </r>
       <r>   15.8083    0.0000 </r>
       <r>   15.8334    0.0000 </r>
       <r>   16.5876    0.0000 </r>
       <r>   17.4319    0.0000 </r>
       <r>   19.0354    0.0000 </r>
       <r>   19.8571    0.0000 </r>
       <r>   20.4902    0.0000 </r>
       <r>   21.0870    0.0000 </r>
       <r>   21.2347    0.0000 </r>
       <r>   21.5366    0.0000 </r>
       <r>   22.4096    0.0000 </r>
       <r>   22.6359    0.0000 </r>
       <r>   23.7774    0.0000 </r>
       <r>   24.1283    0.0000 </r>
       <r>   24.3037    0.0000 </r>
      </set>
      <set comment="kpoint 11">
       <r>  -16.0389    1.0000 </r>
       <r>  -16.0367    1.0000 </r>
       <r>  -16.0314    1.0000 </r>
       <r>  -16.0303    1.0000 </r>
       <r>  -16.0093    1.0000 </r>
       <r>  -16.0091    1.0000 </r>
       <r>  -15.9907    1.0000 </r>
       <r>  -15.9847    1.0000 </r>
       <r>  -15.9832    1.0000 </r>
       <r>  -15.9591    1.0000 </r>
       <r>   -8.2128    1.0000 </r>
       <r>   -6.8545    1.0000 </r>
       <r>   -0.8647    1.0000 </r>
       <r>   -0.4677    1.0000 </r>
       <r>    0.5292    1.0000 </r>
       <r>    2.1011    1.0000 </r>
       <r>    2.5878    1.0000 </r>
       <r>    3.6111    1.0000 </r>
       <r>    3.7854    1.0000 </r>
       <r>    4.7625    1.0000 </r>
       <r>    8.1111    0.0000 </r>
       <r>    9.3018    0.0000 </r>
       <r>    9.4237    0.0000 </r>
       <r>    9.4623    0.0000 </r>
       <r>    9.9228    0.0000 </r>
       <r>   10.0015    0.0000 </r>
       <r>   10.7761    0.0000 </r>
       <r>   11.8181    0.0000 </r>
       <r>   11.8679    0.0000 </r>
       <r>   13.5036    0.0000 </r>
       <r>   13.7976    0.0000 </r>
       <r>   15.1419    0.0000 </r>
       <r>   15.4048    0.0000 </r>
       <r>   15.9653    0.0000 </r>
       <r>   15.9839    0.0000 </r>
       <r>   16.7674    0.0000 </r>
       <r>   17.5884    0.0000 </r>
       <r>   18.9551    0.0000 </r>
       <r>   19.7318    0.0000 </r>
       <r>   20.3332    0.0000 </r>
       <r>   20.9734    0.0000 </r>
       <r>   21.2546    0.0000 </r>
       <r>   21.5636    0.0000 </r>
       <r>   22.4080    0.0000 </r>
       <r>   22.6413    0.0000 </r>
       <r>   23.7242    0.0000 </r>
       <r>   24.3400    0.0000 </r>
       <r>   24.5010    0.0000 </r>
      </set>
      <set comment="kpoint 12">
       <r>  -16.0386    1.0000 </r>
       <r>  -16.0364    1.0000 </r>
       <r>  -16.0317    1.0000 </r>
       <r>  -16.0305    1.0000 </r>
       <r>  -16.0092    1.0000 </r>
       <r>  -16.0085    1.0000 </r>
       <r>  -15.9908    1.0000 </r>
       <r>  -15.9849    1.0000 </r>
       <r>  -15.9832    1.0000 </r>
       <r>  -15.9591    1.0000 </r>
       <r>   -8.1948    1.0000 </r>
       <r>   -6.8550    1.0000 </r>
       <r>   -0.9139    1.0000 </r>
       <r>   -0.5539    1.0000 </r>
       <r>    0.5501    1.0000 </r>
       <r>    2.1303    1.0000 </r>
       <r>    2.6399    1.0000 </r>
       <r>    3.7072    1.0000 </r>
       <r>    3.8032    1.0000 </r>
       <r>    4.7536    1.0000 </r>
       <r>    7.9765    0.0000 </r>
       <r>    9.3074    0.0000 </r>
       <r>    9.3385    0.0000 </r>
       <r>    9.3566    0.0000 </r>
       <r>    9.8686    0.0000 </r>
       <r>   10.0049    0.0000 </r>
       <r>   10.8016    0.0000 </r>
       <r>   11.8653    0.0000 </r>
       <r>   11.8773    0.0000 </r>
       <r>   13.4068    0.0000 </r>
       <r>   13.7660    0.0000 </r>
       <r>   15.3225    0.0000 </r>
       <r>   15.4851    0.0000 </r>
       <r>   16.1308    0.0000 </r>
       <r>   16.1381    0.0000 </r>
       <r>   16.9500    0.0000 </r>
       <r>   17.7487    0.0000 </r>
       <r>   18.8721    0.0000 </r>
       <r>   19.6026    0.0000 </r>
       <r>   20.1760    0.0000 </r>
       <r>   20.8672    0.0000 </r>
       <r>   21.2851    0.0000 </r>
       <r>   21.5971    0.0000 </r>
[...]
       <r>   21.8828    0.0000 </r>
       <r>   22.7984    0.0000 </r>
       <r>   22.7997    0.0000 </r>
       <r>   23.7384    0.0000 </r>
       <r>   23.7391    0.0000 </r>
       <r>   23.7410    0.0000 </r>
       <r>   23.7508    0.0000 </r>
      </set>
      <set comment="kpoint 391">
       <r>  -16.0370    1.0000 </r>
       <r>  -16.0370    1.0000 </r>
       <r>  -16.0304    1.0000 </r>
       <r>  -16.0304    1.0000 </r>
       <r>  -16.0073    1.0000 </r>
       <r>  -16.0073    1.0000 </r>
       <r>  -15.9830    1.0000 </r>
       <r>  -15.9830    1.0000 </r>
       <r>  -15.9731    1.0000 </r>
       <r>  -15.9731    1.0000 </r>
       <r>   -7.2807    1.0000 </r>
       <r>   -7.2807    1.0000 </r>
       <r>   -2.2952    1.0000 </r>
       <r>   -2.2952    1.0000 </r>
       <r>    3.5204    1.0000 </r>
       <r>    3.5204    1.0000 </r>
       <r>    3.7689    1.0000 </r>
       <r>    3.7689    1.0000 </r>
       <r>    4.4147    1.0000 </r>
       <r>    4.4147    1.0000 </r>
       <r>    6.8564    0.0000 </r>
       <r>    6.8564    0.0000 </r>
       <r>    7.4493    0.0000 </r>
       <r>    7.4493    0.0000 </r>
       <r>    8.0042    0.0000 </r>
       <r>    8.0042    0.0000 </r>
       <r>   12.8638    0.0000 </r>
       <r>   12.8638    0.0000 </r>
       <r>   13.3329    0.0000 </r>
       <r>   13.3329    0.0000 </r>
       <r>   15.1878    0.0000 </r>
       <r>   15.1878    0.0000 </r>
       <r>   16.4522    0.0000 </r>
       <r>   16.4522    0.0000 </r>
       <r>   19.0117    0.0000 </r>
       <r>   19.0117    0.0000 </r>
       <r>   21.3314    0.0000 </r>
       <r>   21.3314    0.0000 </r>
       <r>   21.6473    0.0000 </r>
       <r>   21.6473    0.0000 </r>
       <r>   21.9196    0.0000 </r>
       <r>   21.9197    0.0000 </r>
       <r>   22.8264    0.0000 </r>
       <r>   22.8270    0.0000 </r>
       <r>   23.7033    0.0000 </r>
       <r>   23.7049    0.0000 </r>
       <r>   23.7686    0.0000 </r>
       <r>   23.7928    0.0000 </r>
      </set>
      <set comment="kpoint 392">
       <r>  -16.0370    1.0000 </r>
       <r>  -16.0370    1.0000 </r>
       <r>  -16.0304    1.0000 </r>
       <r>  -16.0304    1.0000 </r>
       <r>  -16.0074    1.0000 </r>
       <r>  -16.0074    1.0000 </r>
       <r>  -15.9830    1.0000 </r>
       <r>  -15.9830    1.0000 </r>
       <r>  -15.9731    1.0000 </r>
       <r>  -15.9731    1.0000 </r>
       <r>   -7.2806    1.0000 </r>
       <r>   -7.2806    1.0000 </r>
       <r>   -2.2967    1.0000 </r>
       <r>   -2.2967    1.0000 </r>
       <r>    3.5200    1.0000 </r>
       <r>    3.5200    1.0000 </r>
       <r>    3.7806    1.0000 </r>
       <r>    3.7806    1.0000 </r>
       <r>    4.4088    1.0000 </r>
       <r>    4.4088    1.0000 </r>
       <r>    6.8543    0.0000 </r>
       <r>    6.8543    0.0000 </r>
       <r>    7.4513    0.0000 </r>
       <r>    7.4513    0.0000 </r>
       <r>    8.0004    0.0000 </r>
       <r>    8.0004    0.0000 </r>
       <r>   12.8576    0.0000 </r>
       <r>   12.8576    0.0000 </r>
       <r>   13.3276    0.0000 </r>
       <r>   13.3276    0.0000 </r>
       <r>   15.1899    0.0000 </r>
       <r>   15.1899    0.0000 </r>
       <r>   16.4495    0.0000 </r>
       <r>   16.4495    0.0000 </r>
       <r>   19.0299    0.0000 </r>
       <r>   19.0299    0.0000 </r>
       <r>   21.3425    0.0000 </r>
       <r>   21.3426    0.0000 </r>
       <r>   21.6358    0.0000 </r>
       <r>   21.6358    0.0000 </r>
       <r>   21.9337    0.0000 </r>
       <r>   21.9337    0.0000 </r>
       <r>   22.8358    0.0000 </r>
       <r>   22.8373    0.0000 </r>
       <r>   23.6897    0.0000 </r>
       <r>   23.6917    0.0000 </r>
       <r>   23.7810    0.0000 </r>
       <r>   23.7849    0.0000 </r>
      </set>
     </set>
    </set>
   </array>
  </eigenvalues>
  <separator name="orbital magnetization" >
   <v name="MAGDIPOLOUT">      0.00000000      0.00000000      0.00000000</v>
  </separator>
  <dos>
   <i name="efermi">      5.61348922 </i>
   <total>
    <array>
     <dimension dim="1">gridpoints</dimension>
     <dimension dim="2">spin</dimension>
     <field>energy</field>
     <field>total</field>
     <field>integrated</field>
     <set>
      <set comment="spin 1">
       <r>   -18.2165     0.0000     0.0000 </r>
       <r>   -18.0579     0.0000     0.0000 </r>
       <r>   -17.8993     0.0000     0.0000 </r>
       <r>   -17.7407     0.0000     0.0000 </r>
       <r>   -17.5821     0.0000     0.0000 </r>
       <r>   -17.4235     0.0000     0.0000 </r>
       <r>   -17.2649     0.0000     0.0000 </r>
       <r>   -17.1063     0.0000     0.0000 </r>
       <r>   -16.9477     0.0000     0.0000 </r>
       <r>   -16.7891     0.0000     0.0000 </r>
       <r>   -16.6305     0.0000     0.0000 </r>
       <r>   -16.4719     0.0000     0.0000 </r>
       <r>   -16.3133     0.0000     0.0000 </r>
       <r>   -16.1547     0.0000     0.0000 </r>
       <r>   -15.9961    75.1365    11.9168 </r>
       <r>   -15.8375     0.0000    20.0000 </r>
       <r>   -15.6789     0.0000    20.0000 </r>
       <r>   -15.5203     0.0000    20.0000 </r>
       <r>   -15.3617     0.0000    20.0000 </r>
       <r>   -15.2030     0.0000    20.0000 </r>
       <r>   -15.0444     0.0000    20.0000 </r>
       <r>   -14.8858     0.0000    20.0000 </r>
       <r>   -14.7272     0.0000    20.0000 </r>
       <r>   -14.5686     0.0000    20.0000 </r>
       <r>   -14.4100     0.0000    20.0000 </r>
       <r>   -14.2514     0.0000    20.0000 </r>
       <r>   -14.0928     0.0000    20.0000 </r>
       <r>   -13.9342     0.0000    20.0000 </r>
       <r>   -13.7756     0.0000    20.0000 </r>
       <r>   -13.6170     0.0000    20.0000 </r>
       <r>   -13.4584     0.0000    20.0000 </r>
       <r>   -13.2998     0.0000    20.0000 </r>
       <r>   -13.1412     0.0000    20.0000 </r>
       <r>   -12.9826     0.0000    20.0000 </r>
       <r>   -12.8240     0.0000    20.0000 </r>
       <r>   -12.6654     0.0000    20.0000 </r>
       <r>   -12.5068     0.0000    20.0000 </r>
       <r>   -12.3482     0.0000    20.0000 </r>
       <r>   -12.1896     0.0000    20.0000 </r>
       <r>   -12.0310     0.0000    20.0000 </r>
       <r>   -11.8724     0.0000    20.0000 </r>
       <r>   -11.7138     0.0000    20.0000 </r>
       <r>   -11.5552     0.0000    20.0000 </r>
       <r>   -11.3966     0.0000    20.0000 </r>
       <r>   -11.2380     0.0000    20.0000 </r>
       <r>   -11.0794     0.0000    20.0000 </r>
       <r>   -10.9208     0.0000    20.0000 </r>
       <r>   -10.7622     0.0000    20.0000 </r>
       <r>   -10.6036     0.0000    20.0000 </r>
       <r>   -10.4450     0.0000    20.0000 </r>
       <r>   -10.2864     0.0000    20.0000 </r>
       <r>   -10.1278     0.0000    20.0000 </r>
       <r>    -9.9692     0.0000    20.0000 </r>
       <r>    -9.8106     0.0000    20.0000 </r>
       <r>    -9.6520     0.0000    20.0000 </r>
       <r>    -9.4934     0.0000    20.0000 </r>
       <r>    -9.3348     0.0000    20.0000 </r>
       <r>    -9.1762     0.0000    20.0000 </r>
       <r>    -9.0176     0.0000    20.0000 </r>
       <r>    -8.8590     0.0000    20.0000 </r>
       <r>    -8.7004     0.0000    20.0000 </r>
       <r>    -8.5418     0.0000    20.0000 </r>
       <r>    -8.3832     0.0000    20.0000 </r>
       <r>    -8.2246     0.9930    20.1575 </r>
       <r>    -8.0659     0.3732    20.2888 </r>
       <r>    -7.9073     0.5145    20.5051 </r>
       <r>    -7.7487     0.3331    20.6191 </r>
       <r>    -7.5901     0.3695    20.7219 </r>
       <r>    -7.4315     0.3220    20.8215 </r>
       <r>    -7.2729     4.2594    21.6551 </r>
       <r>    -7.1143     3.1567    22.7558 </r>
       <r>    -6.9557     3.7957    23.6887 </r>
       <r>    -6.7971     1.2546    24.0000 </r>
       <r>    -6.6385     0.0000    24.0000 </r>
       <r>    -6.4799     0.0000    24.0000 </r>
       <r>    -6.3213     0.0000    24.0000 </r>
       <r>    -6.1627     0.0000    24.0000 </r>
       <r>    -6.0041     0.0000    24.0000 </r>
       <r>    -5.8455     0.0000    24.0000 </r>
       <r>    -5.6869     0.0000    24.0000 </r>
       <r>    -5.5283     0.0000    24.0000 </r>
       <r>    -5.3697     0.0000    24.0000 </r>
       <r>    -5.2111     0.0000    24.0000 </r>
       <r>    -5.0525     0.0000    24.0000 </r>
       <r>    -4.8939     0.0000    24.0000 </r>
       <r>    -4.7353     0.0000    24.0000 </r>
       <r>    -4.5767     0.0000    24.0000 </r>
       <r>    -4.4181     0.0000    24.0000 </r>
       <r>    -4.2595     0.0000    24.0000 </r>
       <r>    -4.1009     0.0000    24.0000 </r>
       <r>    -3.9423     0.0000    24.0000 </r>
       <r>    -3.7837     0.0000    24.0000 </r>
       <r>    -3.6251     0.0000    24.0000 </r>
       <r>    -3.4665     0.0000    24.0000 </r>
       <r>    -3.3079     0.0000    24.0000 </r>
       <r>    -3.1493     0.0000    24.0000 </r>
       <r>    -2.9907     0.0000    24.0000 </r>
       <r>    -2.8321     0.0000    24.0000 </r>
       <r>    -2.6735     0.5613    24.0890 </r>
       <r>    -2.5149     0.5916    24.2622 </r>
       <r>    -2.3563     0.5926    24.4052 </r>
       <r>    -2.1977     0.9653    24.7143 </r>
       <r>    -2.0391     0.6111    24.9184 </r>
       <r>    -1.8805     0.6056    25.1011 </r>
       <r>    -1.7219     1.4181    25.4647 </r>
       <r>    -1.5633     1.4082    25.8866 </r>
       <r>    -1.4047     0.9104    26.1801 </r>
       <r>    -1.2461     0.8258    26.4779 </r>
       <r>    -1.0875     0.9894    26.7692 </r>
       <r>    -0.9289     1.7355    27.2548 </r>
       <r>    -0.7702     0.3753    27.3861 </r>
       <r>    -0.6116     0.3695    27.4872 </r>
       <r>    -0.4530     0.1565    27.5758 </r>
       <r>    -0.2944     0.1092    27.6194 </r>
       <r>    -0.1358     0.1659    27.6692 </r>
       <r>     0.0228     0.4531    27.7759 </r>
       <r>     0.1814     0.1616    27.8267 </r>
       <r>     0.3400     1.4316    28.0995 </r>
       <r>     0.4986     1.3287    28.5066 </r>
       <r>     0.6572     0.5700    28.7129 </r>
       <r>     0.8158     0.3842    28.8467 </r>
       <r>     0.9744     0.4018    28.9719 </r>
       <r>     1.1330     0.3354    29.0838 </r>
       <r>     1.2916     0.2526    29.1880 </r>
       <r>     1.4502     0.3183    29.2852 </r>
       <r>     1.6088     0.7284    29.4574 </r>
       <r>     1.7674     0.4935    29.6395 </r>
       <r>     1.9260     1.6710    30.0456 </r>
       <r>     2.0846     1.5691    30.6927 </r>
       <r>     2.2432     1.3548    31.1026 </r>
       <r>     2.4018     1.5997    31.6109 </r>
       <r>     2.5604     1.3156    32.0097 </r>
       <r>     2.7190     1.1210    32.3666 </r>
       <r>     2.8776     0.7320    32.6773 </r>
       <r>     3.0362     1.1217    33.0504 </r>
       <r>     3.1948     1.5508    33.6133 </r>
       <r>     3.3534     1.7668    34.1680 </r>
       <r>     3.5120     1.9537    34.7691 </r>
       <r>     3.6706     4.2555    36.1035 </r>
       <r>     3.8292     2.4145    36.9901 </r>
       <r>     3.9878     0.8675    37.3570 </r>
       <r>     4.1464     0.5411    37.5807 </r>
       <r>     4.3050     0.4524    37.7350 </r>
       <r>     4.4636     1.3296    38.0527 </r>
       <r>     4.6222     1.5022    38.4321 </r>
       <r>     4.7808     2.3151    39.0100 </r>
       <r>     4.9394     0.8039    39.4693 </r>
       <r>     5.0980     0.7413    39.6686 </r>
       <r>     5.2566     0.3456    39.8813 </r>
       <r>     5.4152     0.1608    39.9847 </r>
       <r>     5.5738     0.0000    40.0000 </r>
       <r>     5.7324     0.6241    40.0990 </r>
       <r>     5.8910     0.2269    40.1788 </r>
       <r>     6.0496     0.2894    40.2551 </r>
       <r>     6.2082     0.5729    40.4072 </r>
       <r>     6.3668     1.2149    40.7692 </r>
       <r>     6.5255     1.3404    41.1156 </r>
       <r>     6.6841     1.0972    41.4597 </r>
       <r>     6.8427     0.9526    41.7429 </r>
       <r>     7.0013     1.2974    42.2568 </r>
       <r>     7.1599     0.8103    42.5367 </r>
       <r>     7.3185     0.7434    42.7812 </r>
       <r>     7.4771     1.3085    43.1157 </r>
       <r>     7.6357     1.1593    43.5002 </r>
       <r>     7.7943     0.8990    43.8569 </r>
       <r>     7.9529     1.6712    44.3212 </r>
       <r>     8.1115     1.3226    44.7557 </r>
       <r>     8.2701     0.9944    45.0761 </r>
       <r>     8.4287     0.8354    45.3723 </r>
       <r>     8.5873     0.6881    45.6449 </r>
       <r>     8.7459     1.3377    46.0183 </r>
       <r>     8.9045     1.3759    46.4019 </r>
       <r>     9.0631     1.2001    46.8128 </r>
       <r>     9.2217     0.8759    47.1185 </r>
       <r>     9.3803     1.0746    47.4766 </r>
       <r>     9.5389     1.0203    47.8557 </r>
       <r>     9.6975     0.9781    48.1704 </r>
       <r>     9.8561     1.1298    48.5261 </r>
       <r>    10.0147     1.4086    48.9275 </r>
       <r>    10.1733     1.8801    49.4615 </r>
       <r>    10.3319     2.6726    50.3627 </r>
       <r>    10.4905     1.1241    50.7752 </r>
       <r>    10.6491     0.9596    51.0859 </r>
       <r>    10.8077     1.2849    51.5405 </r>
       <r>    10.9663     1.1991    52.0167 </r>
       <r>    11.1249     0.7029    52.2696 </r>
       <r>    11.2835     0.6112    52.5459 </r>
       <r>    11.4421     0.7743    52.7759 </r>
       <r>    11.6007     0.7697    53.0149 </r>
       <r>    11.7593     1.0633    53.4186 </r>
       <r>    11.9179     1.4971    53.8752 </r>
       <r>    12.0765     1.1572    54.2652 </r>
       <r>    12.2351     0.9047    54.6792 </r>
       <r>    12.3937     0.7000    54.8916 </r>
       <r>    12.5523     0.5902    55.0885 </r>
       <r>    12.7109     0.8526    55.3240 </r>
       <r>    12.8695     1.0345    55.6386 </r>
       <r>    13.0281     0.9787    55.9562 </r>
       <r>    13.1867     0.7467    56.1745 </r>
       <r>    13.3453     0.8196    56.4106 </r>
       <r>    13.5039     0.5617    56.6350 </r>
       <r>    13.6626     0.9407    56.8890 </r>
       <r>    13.8212     0.9656    57.2297 </r>
       <r>    13.9798     1.0502    57.5543 </r>
       <r>    14.1384     1.2957    57.9861 </r>
       <r>    14.2970     1.6231    58.4054 </r>
       <r>    14.4556     1.4222    58.8327 </r>
       <r>    14.6142     1.4202    59.3324 </r>
       <r>    14.7728     1.2238    59.7757 </r>
       <r>    14.9314     1.2778    60.2078 </r>
       <r>    15.0900     1.7509    60.7165 </r>
       <r>    15.2486     1.9783    61.3291 </r>
       <r>    15.4072     1.3663    61.7626 </r>
       <r>    15.5658     1.7066    62.2860 </r>
       <r>    15.7244     1.6811    62.7921 </r>
       <r>    15.8830     1.5399    63.3208 </r>
       <r>    16.0416     1.9684    63.9499 </r>
       <r>    16.2002     2.9153    64.6563 </r>
       <r>    16.3588     1.5048    65.1264 </r>
       <r>    16.5174     2.8831    65.7430 </r>
       <r>    16.6760     2.3306    66.6247 </r>
       <r>    16.8346     2.5617    67.3196 </r>
       <r>    16.9932     2.1650    68.0219 </r>
       <r>    17.1518     1.3436    68.5039 </r>
       <r>    17.3104     2.0782    69.1204 </r>
       <r>    17.4690     1.4964    69.5486 </r>
       <r>    17.6276     1.4337    70.0029 </r>
       <r>    17.7862     0.9792    70.4002 </r>
       <r>    17.9448     1.4311    70.8698 </r>
       <r>    18.1034     1.3419    71.3404 </r>
       <r>    18.2620     2.2702    71.9672 </r>
       <r>    18.4206     1.3441    72.4122 </r>
       <r>    18.5792     1.5260    72.8645 </r>
       <r>    18.7378     1.7623    73.3407 </r>
       <r>    18.8964     2.0627    73.9190 </r>
       <r>    19.0550     1.9352    74.4600 </r>
       <r>    19.2136     1.6531    74.9561 </r>
       <r>    19.3722     1.9459    75.5688 </r>
       <r>    19.5308     2.8500    76.2785 </r>
       <r>    19.6894     1.3870    76.6945 </r>
       <r>    19.8480     2.4609    77.3138 </r>
       <r>    20.0066     1.3604    77.7821 </r>
       <r>    20.1652     1.0972    78.2199 </r>
       <r>    20.3238     1.7881    78.8091 </r>
       <r>    20.4824     2.0896    79.4437 </r>
       <r>    20.6410     2.2605    80.1493 </r>
       <r>    20.7996     1.9143    80.7169 </r>
       <r>    20.9583     2.4591    81.4563 </r>
       <r>    21.1169     1.6721    82.0713 </r>
       <r>    21.2755     2.0994    82.7411 </r>
       <r>    21.4341     1.2622    83.3583 </r>
       <r>    21.5927     1.6283    83.9062 </r>
       <r>    21.7513     2.5791    84.6744 </r>
       <r>    21.9099     2.7878    85.4575 </r>
       <r>    22.0685     1.8604    86.1777 </r>
       <r>    22.2271     1.7651    86.7391 </r>
       <r>    22.3857     1.1747    87.2016 </r>
       <r>    22.5443     1.3178    87.7855 </r>
       <r>    22.7029     2.0478    88.4064 </r>
       <r>    22.8615     2.0741    89.0432 </r>
       <r>    23.0201     1.8755    89.5832 </r>
       <r>    23.1787     1.6478    90.1593 </r>
       <r>    23.3373     1.7424    90.8019 </r>
       <r>    23.4959     1.7580    91.3911 </r>
       <r>    23.6545     2.2671    92.1351 </r>
       <r>    23.8131     2.0342    92.7971 </r>
       <r>    23.9717     1.5211    93.3739 </r>
       <r>    24.1303     1.1638    93.7458 </r>
       <r>    24.2889     1.0619    94.1072 </r>
       <r>    24.4475     1.2260    94.5057 </r>
       <r>    24.6061     0.5882    94.8076 </r>
       <r>    24.7647     0.5972    95.0539 </r>
       <r>    24.9233     0.5082    95.2337 </r>
       <r>    25.0819     0.3668    95.3337 </r>
       <r>    25.2405     0.1072    95.4099 </r>
       <r>    25.3991     0.2352    95.5067 </r>
       <r>    25.5577     0.2996    95.5730 </r>
       <r>    25.7163     0.1285    95.6326 </r>
       <r>    25.8749     0.2547    95.6935 </r>
       <r>    26.0335     0.0522    95.7277 </r>
       <r>    26.1921     0.1608    95.7806 </r>
       <r>    26.3507     0.2904    95.8420 </r>
       <r>    26.5093     0.1674    95.8888 </r>
       <r>    26.6679     0.2246    95.9744 </r>
       <r>    26.8265     0.0323    95.9847 </r>
       <r>    26.9851     0.0322    95.9949 </r>
       <r>    27.1437     0.0000    95.9949 </r>
       <r>    27.3023     0.0000    96.0000 </r>
       <r>    27.4609     0.0000    96.0000 </r>
       <r>    27.6195     0.0000    96.0000 </r>
       <r>    27.7781     0.0000    96.0000 </r>
       <r>    27.9367     0.0000    96.0000 </r>
       <r>    28.0953     0.0000    96.0000 </r>
       <r>    28.2540     0.0000    96.0000 </r>
       <r>    28.4126     0.0000    96.0000 </r>
       <r>    28.5712     0.0000    96.0000 </r>
       <r>    28.7298     0.0000    96.0000 </r>
       <r>    28.8884     0.0000    96.0000 </r>
       <r>    29.0470     0.0000    96.0000 </r>
       <r>    29.2056     0.0000    96.0000 </r>
       <r>    29.3642     0.0000    96.0000 </r>
      </set>
     </set>
    </array>
   </total>
  </dos>
 </calculation>
 <structure name="finalpos" >
  <crystal>
   <varray name="basis" >
    <v>       2.13818630      -5.92642563      -0.00000000 </v>
    <v>       2.13818630       5.92642563       0.00000000 </v>
    <v>       0.00000000       0.00000000       4.25446176 </v>
   </varray>
   <i name="volume">    107.82339484 </i>
   <varray name="rec_basis" >
    <v>       0.23384305      -0.08436789       0.00000000 </v>
    <v>       0.23384305       0.08436789      -0.00000000 </v>
    <v>       0.00000000      -0.00000000       0.23504736 </v>
   </varray>
  </crystal>
  <varray name="positions" >
   <v>       0.37460531       0.62539469       0.25000000 </v>
   <v>       0.62539469       0.37460531       0.75000000 </v>
   <v>       0.14358059       0.85641941       0.25000000 </v>
   <v>       0.85641941       0.14358059       0.75000000 </v>
  </varray>
 </structure>
</modeling>
