 vasp.5.4.4.18Apr17-6-g9f103f2a35 (build Mar 20 2018 18:07:30) complex           
 executed on             LinuxGNU date 2020.07.05  10:33:26
 running on    8 total cores
 distrk:  each k-point on    8 cores,    1 groups
 distr:  one band on NCORES_PER_BAND=   1 cores,    8 groups


--------------------------------------------------------------------------------------------------------


 INCAR:
 POTCAR:    PAW_PBE Bi 08Apr2002                  
 POTCAR:    PAW_PBE Te 08Apr2002                  

 ----------------------------------------------------------------------------- 
|                                                                             |
|           W    W    AA    RRRRR   N    N  II  N    N   GGGG   !!!           |
|           W    W   A  A   R    R  NN   N  II  NN   N  G    G  !!!           |
|           W    W  A    A  R    R  N N  N  II  N N  N  G       !!!           |
|           W WW W  AAAAAA  RRRRR   N  N N  II  N  N N  G  GGG   !            |
|           WW  WW  A    A  R   R   N   NN  II  N   NN  G    G                |
|           W    W  A    A  R    R  N    N  II  N    N   GGGG   !!!           |
|                                                                             |
|      For optimal performance we recommend to set                            |
|        NCORE= 4 - approx SQRT( number of cores)                             |
|      NCORE specifies how many cores store one orbital (NPAR=cpu/NCORE).     |
|      This setting can  greatly improve the performance of VASP for DFT.     |
|      The default,   NCORE=1            might be grossly inefficient         |
|      on modern multi-core architectures or massively parallel machines.     |
|      Do your own testing !!!!                                               |
|      Unfortunately you need to use the default for GW and RPA calculations. |
|      (for HF NCORE is supported but not extensively tested yet)             |
|                                                                             |
 ----------------------------------------------------------------------------- 

 POTCAR:    PAW_PBE Bi 08Apr2002                  
   VRHFIN =Bi:                                                                  
   LEXCH  = PE                                                                  
   EATOM  =   150.8133 eV,   11.0845 Ry                                         
                                                                                
   TITEL  = PAW_PBE Bi 08Apr2002                                                
   LULTRA =        F    use ultrasoft PP ?                                      
   IUNSCR =        1    unscreen: 0-lin 1-nonlin 2-no                           
   RPACOR =    2.200    partial core radius                                     
   POMASS =  208.980; ZVAL   =    5.000    mass and valenz                      
   RCORE  =    3.000    outmost cutoff radius                                   
   RWIGS  =    3.090; RWIGS  =    1.635    wigner-seitz radius (au A)           
   ENMAX  =  105.037; ENMIN  =   78.777 eV                                      
   ICORE  =        3    local potential                                         
   LCOR   =        T    correct aug charges                                     
   LPAW   =        T    paw PP                                                  
   EAUG   =  265.427                                                            
   DEXC   =    0.000                                                            
   RMAX   =    3.067    core radius for proj-oper                               
   RAUG   =    1.300    factor for augmentation sphere                          
   RDEP   =    3.012    radius for radial grids                                 
   RDEPT  =    2.604    core radius for aug-charge                              
                                                                                
   Atomic configuration                                                         
   17 entries                                                                   
     n  l   j            E        occ.                                          
     1  0  0.50    -90639.6582   2.0000                                         
     2  0  0.50    -16282.4667   2.0000                                         
     2  1  1.50    -13922.8287   6.0000                                         
     3  0  0.50     -3930.4763   2.0000                                         
     3  1  1.50     -3256.7013   6.0000                                         
     3  2  2.50     -2581.6169  10.0000                                         
     4  0  0.50      -902.2614   2.0000                                         
     4  1  1.50      -681.5915   6.0000                                         
     4  2  2.50      -429.8249  10.0000                                         
     4  3  3.50      -152.6004  14.0000                                         
     5  0  0.50      -157.7156   2.0000                                         
     5  1  1.50       -95.8054   6.0000                                         
     5  2  2.50       -27.0806  10.0000                                         
     6  0  0.50       -14.4732   2.0000                                         
     6  1  1.50        -4.5702   3.0000                                         
     6  2  2.50        -2.7212   0.0000                                         
     5  3  2.50        -2.7212   0.0000                                         
   Description                                                                  
     l       E           TYP  RCUT    TYP  RCUT                                 
     0    -14.4732299     23  3.000                                             
     0    -12.2452434     23  3.000                                             
     1     -4.5701666     23  3.000                                             
     1    -13.6058260     23  3.000                                             
     2     -2.7211652     23  3.000                                             
     3     -1.3605826      7  3.000                                             
  local pseudopotential read in
  partial core-charges read in
  partial kinetic energy density read in
  kinetic energy density of atom read in
  atomic valenz-charges read in
  non local Contribution for L=           0  read in
    real space projection operators read in
  non local Contribution for L=           0  read in
    real space projection operators read in
  non local Contribution for L=           1  read in
    real space projection operators read in
  non local Contribution for L=           1  read in
    real space projection operators read in
  non local Contribution for L=           2  read in
    real space projection operators read in
    PAW grid and wavefunctions read in

   number of l-projection  operators is LMAX  =           5
   number of lm-projection operators is LMMAX =          13

 POTCAR:    PAW_PBE Te 08Apr2002                  
   VRHFIN =Te: s2p4                                                             
   LEXCH  = PE                                                                  
   EATOM  =   223.2721 eV,   16.4100 Ry                                         
                                                                                
   TITEL  = PAW_PBE Te 08Apr2002                                                
   LULTRA =        F    use ultrasoft PP ?                                      
   IUNSCR =        1    unscreen: 0-lin 1-nonlin 2-no                           
   RPACOR =    2.200    partial core radius                                     
   POMASS =  127.600; ZVAL   =    6.000    mass and valenz                      
   RCORE  =    2.300    outmost cutoff radius                                   
   RWIGS  =    2.900; RWIGS  =    1.535    wigner-seitz radius (au A)           
   ENMAX  =  174.982; ENMIN  =  131.236 eV                                      
   ICORE  =        3    local potential                                         
   LCOR   =        T    correct aug charges                                     
   LPAW   =        T    paw PP                                                  
   EAUG   =  368.792                                                            
   DEXC   =    0.000                                                            
   RMAX   =    2.345    core radius for proj-oper                               
   RAUG   =    1.300    factor for augmentation sphere                          
   RDEP   =    2.397    radius for radial grids                                 
   RDEPT  =    2.174    core radius for aug-charge                              
                                                                                
   Atomic configuration                                                         
   13 entries                                                                   
     n  l   j            E        occ.                                          
     1  0  0.50    -31621.2075   2.0000                                         
     2  0  0.50     -4848.7941   2.0000                                         
     2  1  1.50     -4352.1960   6.0000                                         
     3  0  0.50      -964.9612   2.0000                                         
     3  1  1.50      -803.6179   6.0000                                         
     3  2  2.50      -559.8710  10.0000                                         
     4  0  0.50      -164.3522   2.0000                                         
     4  1  1.50      -114.3756   6.0000                                         
     4  2  2.50       -41.6483  10.0000                                         
     5  0  0.50       -15.1072   2.0000                                         
     5  1  0.50        -5.9526   4.0000                                         
     5  2  1.50        -5.4423   0.0000                                         
     4  3  2.50        -5.4423   0.0000                                         
   Description                                                                  
     l       E           TYP  RCUT    TYP  RCUT                                 
     0    -15.1072389     23  2.300                                             
     0    -16.4678215     23  2.300                                             
     1     -5.9526306     23  2.300                                             
     1     -2.4873968     23  2.300                                             
     2     -5.4423304     23  2.300                                             
     3     -1.3605826     23  2.300                                             
  local pseudopotential read in
  partial core-charges read in
  partial kinetic energy density read in
  atomic valenz-charges read in
  non local Contribution for L=           0  read in
    real space projection operators read in
  non local Contribution for L=           0  read in
    real space projection operators read in
  non local Contribution for L=           1  read in
    real space projection operators read in
  non local Contribution for L=           1  read in
    real space projection operators read in
  non local Contribution for L=           2  read in
    real space projection operators read in
    PAW grid and wavefunctions read in

   number of l-projection  operators is LMAX  =           5
   number of lm-projection operators is LMMAX =          13

 WARNING: PSMAXN for non-local potential too small
          PSMAXN should be >   12.549083372950625       NTYP=           1
  PAW_PBE Bi 08Apr2002                  :
 energy of atom  1       EATOM= -150.8133
 kinetic energy error for atom=    0.0000 (will be added to EATOM!!)
  PAW_PBE Te 08Apr2002                  :
 energy of atom  2       EATOM= -223.2721
 kinetic energy error for atom=    0.0004 (will be added to EATOM!!)


 POSCAR: Bi2 Te3                                 
  positions in direct lattice
  No initial velocities read in
 exchange correlation table for  LEXCH =        8
   RHO(1)=    0.500       N(1)  =     2000
   RHO(2)=  100.500       N(2)  =     4000



--------------------------------------------------------------------------------------------------------


 ion  position               nearest neighbor table
   1  0.600  0.600  0.600-   5 3.08   5 3.08   5 3.08   3 3.26   3 3.26   3 3.26
   2  0.400  0.400  0.400-   4 3.08   4 3.08   4 3.08   3 3.26   3 3.26   3 3.26
   3  0.000  0.000  0.000-   1 3.26   2 3.26   1 3.26   1 3.26   2 3.26   2 3.26
   4  0.790  0.790  0.790-   2 3.08   2 3.08   2 3.08
   5  0.210  0.210  0.210-   1 3.08   1 3.08   1 3.08

  LATTYP: Found a trigonal (rhomboedric) cell.
 ALAT       =    10.4598624366
 COS(alpha) =     0.9101779394
  
  Lattice vectors:
  
 A1 = (  10.2222827077,  -2.2166773418,   0.0000000000)
 A2 = (  10.2222827077,   2.2166773418,   0.0000000000)
 A3 = (   9.7416015743,   0.0000000000,   3.8091890162)


Analysis of symmetry for initial positions (statically):
=====================================================================
 Subroutine PRICEL returns:
 Original cell was already a primitive cell.
 

 Routine SETGRP: Setting up the symmetry group for a 
 trigonal (rhombohedral) supercell.


 Subroutine GETGRP returns: Found 12 space group operations
 (whereof 12 operations were pure point group operations)
 out of a pool of 12 trial point group operations.


The static configuration has the point symmetry D_3d.


Analysis of symmetry for dynamics (positions and initial velocities):
=====================================================================
 Subroutine PRICEL returns:
 Original cell was already a primitive cell.
 

 Routine SETGRP: Setting up the symmetry group for a 
 trigonal (rhombohedral) supercell.


 Subroutine GETGRP returns: Found 12 space group operations
 (whereof 12 operations were pure point group operations)
 out of a pool of 12 trial point group operations.


The dynamic configuration has the point symmetry D_3d.


 Subroutine INISYM returns: Found 12 space group operations
 (whereof 12 operations are pure point group operations),
 and found     1 'primitive' translations



 KPOINTS: Kpoints with grid resolution = 0.020 / A

Automatic generation of k-mesh.
Space group operators:
 irot       det(A)        alpha          n_x          n_y          n_z        tau_x        tau_y        tau_z
    1     1.000000     0.000000     1.000000     0.000000     0.000000     0.000000     0.000000     0.000000
    2    -1.000000     0.000000     1.000000     0.000000     0.000000     0.000000     0.000000     0.000000
    3     1.000000   180.000000    -0.108424    -0.500000     0.859211     0.000000     0.000000     0.000000
    4    -1.000000   180.000000    -0.108424    -0.500000     0.859211     0.000000     0.000000     0.000000
    5     1.000000   120.000000    -0.992132     0.000000    -0.125197     0.000000     0.000000     0.000000
    6    -1.000000   120.000000    -0.992132     0.000000    -0.125197     0.000000     0.000000     0.000000
    7     1.000000   180.000000     0.000000     1.000000     0.000000     0.000000     0.000000     0.000000
    8    -1.000000   180.000000     0.000000     1.000000     0.000000     0.000000     0.000000     0.000000
    9     1.000000   120.000000     0.992132     0.000000     0.125197     0.000000     0.000000     0.000000
   10    -1.000000   120.000000     0.992132     0.000000     0.125197     0.000000     0.000000     0.000000
   11     1.000000   180.000000    -0.108424     0.500000     0.859211     0.000000     0.000000     0.000000
   12    -1.000000   180.000000    -0.108424     0.500000     0.859211     0.000000     0.000000     0.000000
 
 Subroutine IBZKPT returns following result:
 ===========================================
 
 Found    231 irreducible k-points:
 
 Following reciprocal coordinates:
            Coordinates               Weight
  0.000000  0.000000  0.000000      1.000000
  0.076923  0.000000  0.000000      6.000000
  0.153846  0.000000  0.000000      6.000000
  0.230769  0.000000  0.000000      6.000000
  0.307692  0.000000  0.000000      6.000000
  0.384615  0.000000  0.000000      6.000000
  0.461538  0.000000  0.000000      6.000000
  0.076923  0.076923  0.000000      6.000000
  0.153846  0.076923  0.000000     12.000000
  0.230769  0.076923  0.000000     12.000000
  0.307692  0.076923  0.000000     12.000000
  0.384615  0.076923  0.000000     12.000000
  0.461538  0.076923  0.000000     12.000000
 -0.461538  0.076923  0.000000     12.000000
 -0.384615  0.076923  0.000000     12.000000
 -0.307692  0.076923  0.000000     12.000000
 -0.230769  0.076923  0.000000     12.000000
 -0.153846  0.076923  0.000000     12.000000
 -0.076923  0.076923  0.000000      6.000000
  0.153846  0.153846  0.000000      6.000000
  0.230769  0.153846  0.000000     12.000000
  0.307692  0.153846  0.000000     12.000000
  0.384615  0.153846  0.000000     12.000000
  0.461538  0.153846  0.000000     12.000000
 -0.461538  0.153846  0.000000     12.000000
 -0.384615  0.153846  0.000000     12.000000
 -0.307692  0.153846  0.000000     12.000000
 -0.230769  0.153846  0.000000     12.000000
 -0.153846  0.153846  0.000000      6.000000
  0.230769  0.230769  0.000000      6.000000
  0.307692  0.230769  0.000000     12.000000
  0.384615  0.230769  0.000000     12.000000
  0.461538  0.230769  0.000000     12.000000
 -0.461538  0.230769  0.000000     12.000000
 -0.384615  0.230769  0.000000     12.000000
 -0.307692  0.230769  0.000000     12.000000
 -0.230769  0.230769  0.000000      6.000000
  0.307692  0.307692  0.000000      6.000000
  0.384615  0.307692  0.000000     12.000000
  0.461538  0.307692  0.000000     12.000000
 -0.461538  0.307692  0.000000     12.000000
 -0.384615  0.307692  0.000000     12.000000
 -0.307692  0.307692  0.000000      6.000000
  0.384615  0.384615  0.000000      6.000000
  0.461538  0.384615  0.000000     12.000000
 -0.461538  0.384615  0.000000     12.000000
 -0.384615  0.384615  0.000000      6.000000
  0.461538  0.461538  0.000000      6.000000
 -0.461538  0.461538  0.000000      6.000000
  0.076923  0.076923  0.076923      2.000000
  0.153846  0.076923  0.076923      6.000000
  0.230769  0.076923  0.076923      6.000000
  0.307692  0.076923  0.076923      6.000000
  0.384615  0.076923  0.076923      6.000000
  0.461538  0.076923  0.076923      6.000000
 -0.461538  0.076923  0.076923      6.000000
 -0.384615  0.076923  0.076923      6.000000
 -0.307692  0.076923  0.076923      6.000000
 -0.230769  0.076923  0.076923      6.000000
 -0.153846  0.076923  0.076923      6.000000
 -0.076923  0.076923  0.076923      6.000000
  0.153846  0.153846  0.076923      6.000000
  0.230769  0.153846  0.076923     12.000000
  0.307692  0.153846  0.076923     12.000000
  0.384615  0.153846  0.076923     12.000000
  0.461538  0.153846  0.076923     12.000000
 -0.461538  0.153846  0.076923     12.000000
 -0.384615  0.153846  0.076923     12.000000
 -0.307692  0.153846  0.076923     12.000000
 -0.230769  0.153846  0.076923     12.000000
 -0.153846  0.153846  0.076923     12.000000
 -0.076923  0.153846  0.076923     12.000000
  0.230769  0.230769  0.076923      6.000000
  0.307692  0.230769  0.076923     12.000000
  0.384615  0.230769  0.076923     12.000000
  0.461538  0.230769  0.076923     12.000000
 -0.461538  0.230769  0.076923     12.000000
 -0.384615  0.230769  0.076923     12.000000
 -0.307692  0.230769  0.076923     12.000000
 -0.230769  0.230769  0.076923     12.000000
 -0.153846  0.230769  0.076923     12.000000
 -0.076923  0.230769  0.076923     12.000000
  0.307692  0.307692  0.076923      6.000000
  0.384615  0.307692  0.076923     12.000000
  0.461538  0.307692  0.076923     12.000000
 -0.461538  0.307692  0.076923     12.000000
 -0.384615  0.307692  0.076923     12.000000
 -0.307692  0.307692  0.076923     12.000000
 -0.230769  0.307692  0.076923     12.000000
 -0.153846  0.307692  0.076923     12.000000
 -0.076923  0.307692  0.076923     12.000000
  0.384615  0.384615  0.076923      6.000000
  0.461538  0.384615  0.076923     12.000000
 -0.461538  0.384615  0.076923     12.000000
 -0.384615  0.384615  0.076923     12.000000
 -0.307692  0.384615  0.076923     12.000000
 -0.230769  0.384615  0.076923     12.000000
 -0.153846  0.384615  0.076923     12.000000
 -0.076923  0.384615  0.076923     12.000000
  0.461538  0.461538  0.076923      6.000000
 -0.461538  0.461538  0.076923     12.000000
 -0.384615  0.461538  0.076923     12.000000
 -0.307692  0.461538  0.076923     12.000000
 -0.230769  0.461538  0.076923     12.000000
 -0.153846  0.461538  0.076923     12.000000
 -0.076923  0.461538  0.076923     12.000000
 -0.461538 -0.461538  0.076923      6.000000
 -0.384615 -0.461538  0.076923     12.000000
 -0.307692 -0.461538  0.076923     12.000000
 -0.230769 -0.461538  0.076923     12.000000
 -0.153846 -0.461538  0.076923     12.000000
 -0.384615 -0.384615  0.076923      6.000000
 -0.307692 -0.384615  0.076923     12.000000
 -0.230769 -0.384615  0.076923     12.000000
 -0.153846 -0.384615  0.076923     12.000000
 -0.307692 -0.307692  0.076923      6.000000
 -0.230769 -0.307692  0.076923     12.000000
 -0.153846 -0.307692  0.076923     12.000000
 -0.230769 -0.230769  0.076923      6.000000
 -0.153846 -0.230769  0.076923     12.000000
 -0.153846 -0.153846  0.076923      6.000000
  0.153846  0.153846  0.153846      2.000000
  0.230769  0.153846  0.153846      6.000000
  0.307692  0.153846  0.153846      6.000000
  0.384615  0.153846  0.153846      6.000000
  0.461538  0.153846  0.153846      6.000000
 -0.461538  0.153846  0.153846      6.000000
 -0.384615  0.153846  0.153846      6.000000
 -0.307692  0.153846  0.153846      6.000000
 -0.230769  0.153846  0.153846      6.000000
 -0.153846  0.153846  0.153846      6.000000
  0.230769  0.230769  0.153846      6.000000
  0.307692  0.230769  0.153846     12.000000
  0.384615  0.230769  0.153846     12.000000
  0.461538  0.230769  0.153846     12.000000
 -0.461538  0.230769  0.153846     12.000000
 -0.384615  0.230769  0.153846     12.000000
 -0.307692  0.230769  0.153846     12.000000
 -0.230769  0.230769  0.153846     12.000000
 -0.153846  0.230769  0.153846     12.000000
  0.307692  0.307692  0.153846      6.000000
  0.384615  0.307692  0.153846     12.000000
  0.461538  0.307692  0.153846     12.000000
 -0.461538  0.307692  0.153846     12.000000
 -0.384615  0.307692  0.153846     12.000000
 -0.307692  0.307692  0.153846     12.000000
 -0.230769  0.307692  0.153846     12.000000
 -0.153846  0.307692  0.153846     12.000000
  0.384615  0.384615  0.153846      6.000000
  0.461538  0.384615  0.153846     12.000000
 -0.461538  0.384615  0.153846     12.000000
 -0.384615  0.384615  0.153846     12.000000
 -0.307692  0.384615  0.153846     12.000000
 -0.230769  0.384615  0.153846     12.000000
 -0.153846  0.384615  0.153846     12.000000
  0.461538  0.461538  0.153846      6.000000
 -0.461538  0.461538  0.153846     12.000000
 -0.384615  0.461538  0.153846     12.000000
 -0.307692  0.461538  0.153846     12.000000
 -0.230769  0.461538  0.153846     12.000000
 -0.153846  0.461538  0.153846     12.000000
 -0.461538 -0.461538  0.153846      6.000000
 -0.384615 -0.461538  0.153846     12.000000
 -0.307692 -0.461538  0.153846     12.000000
 -0.230769 -0.461538  0.153846     12.000000
 -0.384615 -0.384615  0.153846      6.000000
 -0.307692 -0.384615  0.153846     12.000000
 -0.230769 -0.384615  0.153846     12.000000
 -0.307692 -0.307692  0.153846      6.000000
 -0.230769 -0.307692  0.153846     12.000000
 -0.230769 -0.230769  0.153846      6.000000
  0.230769  0.230769  0.230769      2.000000
  0.307692  0.230769  0.230769      6.000000
  0.384615  0.230769  0.230769      6.000000
  0.461538  0.230769  0.230769      6.000000
 -0.461538  0.230769  0.230769      6.000000
 -0.384615  0.230769  0.230769      6.000000
 -0.307692  0.230769  0.230769      6.000000
 -0.230769  0.230769  0.230769      6.000000
  0.307692  0.307692  0.230769      6.000000
  0.384615  0.307692  0.230769     12.000000
  0.461538  0.307692  0.230769     12.000000
 -0.461538  0.307692  0.230769     12.000000
 -0.384615  0.307692  0.230769     12.000000
 -0.307692  0.307692  0.230769     12.000000
 -0.230769  0.307692  0.230769     12.000000
  0.384615  0.384615  0.230769      6.000000
  0.461538  0.384615  0.230769     12.000000
 -0.461538  0.384615  0.230769     12.000000
 -0.384615  0.384615  0.230769     12.000000
 -0.307692  0.384615  0.230769     12.000000
 -0.230769  0.384615  0.230769     12.000000
  0.461538  0.461538  0.230769      6.000000
 -0.461538  0.461538  0.230769     12.000000
 -0.384615  0.461538  0.230769     12.000000
 -0.307692  0.461538  0.230769     12.000000
 -0.230769  0.461538  0.230769     12.000000
 -0.461538 -0.461538  0.230769      6.000000
 -0.384615 -0.461538  0.230769     12.000000
 -0.307692 -0.461538  0.230769     12.000000
 -0.384615 -0.384615  0.230769      6.000000
 -0.307692 -0.384615  0.230769     12.000000
 -0.307692 -0.307692  0.230769      6.000000
  0.307692  0.307692  0.307692      2.000000
  0.384615  0.307692  0.307692      6.000000
  0.461538  0.307692  0.307692      6.000000
 -0.461538  0.307692  0.307692      6.000000
 -0.384615  0.307692  0.307692      6.000000
 -0.307692  0.307692  0.307692      6.000000
  0.384615  0.384615  0.307692      6.000000
  0.461538  0.384615  0.307692     12.000000
 -0.461538  0.384615  0.307692     12.000000
 -0.384615  0.384615  0.307692     12.000000
 -0.307692  0.384615  0.307692     12.000000
  0.461538  0.461538  0.307692      6.000000
 -0.461538  0.461538  0.307692     12.000000
 -0.384615  0.461538  0.307692     12.000000
 -0.307692  0.461538  0.307692     12.000000
 -0.461538 -0.461538  0.307692      6.000000
 -0.384615 -0.461538  0.307692     12.000000
 -0.384615 -0.384615  0.307692      6.000000
  0.384615  0.384615  0.384615      2.000000
  0.461538  0.384615  0.384615      6.000000
 -0.461538  0.384615  0.384615      6.000000
 -0.384615  0.384615  0.384615      6.000000
  0.461538  0.461538  0.384615      6.000000
 -0.461538  0.461538  0.384615     12.000000
 -0.384615  0.461538  0.384615     12.000000
 -0.461538 -0.461538  0.384615      6.000000
  0.461538  0.461538  0.461538      2.000000
 -0.461538  0.461538  0.461538      6.000000
 
 Following cartesian coordinates:
            Coordinates               Weight
  0.000000  0.000000  0.000000      1.000000
  0.003763 -0.017351 -0.009622      6.000000
  0.007525 -0.034702 -0.019244      6.000000
  0.011288 -0.052053 -0.028867      6.000000
  0.015050 -0.069404 -0.038489      6.000000
  0.018813 -0.086755 -0.048111      6.000000
  0.022575 -0.104106 -0.057733      6.000000
  0.007525  0.000000 -0.019244      6.000000
  0.011288 -0.017351 -0.028867     12.000000
  0.015050 -0.034702 -0.038489     12.000000
  0.018813 -0.052053 -0.048111     12.000000
  0.022575 -0.069404 -0.057733     12.000000
  0.026338 -0.086755 -0.067356     12.000000
 -0.018813  0.121457  0.048111     12.000000
 -0.015050  0.104106  0.038489     12.000000
 -0.011288  0.086755  0.028867     12.000000
 -0.007525  0.069404  0.019244     12.000000
 -0.003763  0.052053  0.009622     12.000000
  0.000000  0.034702  0.000000      6.000000
  0.015050  0.000000 -0.038489      6.000000
  0.018813 -0.017351 -0.048111     12.000000
  0.022575 -0.034702 -0.057733     12.000000
  0.026338 -0.052053 -0.067356     12.000000
  0.030100 -0.069404 -0.076978     12.000000
 -0.015050  0.138808  0.038489     12.000000
 -0.011288  0.121457  0.028867     12.000000
 -0.007525  0.104106  0.019244     12.000000
 -0.003763  0.086755  0.009622     12.000000
  0.000000  0.069404 -0.000000      6.000000
  0.022575  0.000000 -0.057733      6.000000
  0.026338 -0.017351 -0.067356     12.000000
  0.030100 -0.034702 -0.076978     12.000000
  0.033863 -0.052053 -0.086600     12.000000
 -0.011288  0.156159  0.028867     12.000000
 -0.007525  0.138808  0.019244     12.000000
 -0.003763  0.121457  0.009622     12.000000
  0.000000  0.104106  0.000000      6.000000
  0.030100  0.000000 -0.076978      6.000000
  0.033863 -0.017351 -0.086600     12.000000
  0.037625 -0.034702 -0.096222     12.000000
 -0.007525  0.173510  0.019244     12.000000
 -0.003763  0.156159  0.009622     12.000000
  0.000000  0.138808 -0.000000      6.000000
  0.037625  0.000000 -0.096222      6.000000
  0.041388 -0.017351 -0.105845     12.000000
 -0.003763  0.190861  0.009622     12.000000
  0.000000  0.173510 -0.000000      6.000000
  0.045150  0.000000 -0.115467      6.000000
  0.000000  0.208212  0.000000      6.000000
  0.007525  0.000000  0.000950      2.000000
  0.011288 -0.017351 -0.008673      6.000000
  0.015050 -0.034702 -0.018295      6.000000
  0.018813 -0.052053 -0.027917      6.000000
  0.022575 -0.069404 -0.037539      6.000000
  0.026338 -0.086755 -0.047162      6.000000
 -0.018813  0.121457  0.068305      6.000000
 -0.015050  0.104106  0.058683      6.000000
 -0.011288  0.086755  0.049061      6.000000
 -0.007525  0.069404  0.039439      6.000000
 -0.003763  0.052053  0.029816      6.000000
  0.000000  0.034702  0.020194      6.000000
  0.015050  0.000000 -0.018295      6.000000
  0.018813 -0.017351 -0.027917     12.000000
  0.022575 -0.034702 -0.037539     12.000000
  0.026338 -0.052053 -0.047162     12.000000
  0.030100 -0.069404 -0.056784     12.000000
 -0.015050  0.138808  0.058683     12.000000
 -0.011288  0.121457  0.049061     12.000000
 -0.007525  0.104106  0.039439     12.000000
 -0.003763  0.086755  0.029816     12.000000
  0.000000  0.069404  0.020194     12.000000
  0.003763  0.052053  0.010572     12.000000
  0.022575  0.000000 -0.037539      6.000000
  0.026338 -0.017351 -0.047162     12.000000
  0.030100 -0.034702 -0.056784     12.000000
  0.033863 -0.052053 -0.066406     12.000000
 -0.011288  0.156159  0.049061     12.000000
 -0.007525  0.138808  0.039439     12.000000
 -0.003763  0.121457  0.029816     12.000000
  0.000000  0.104106  0.020194     12.000000
  0.003763  0.086755  0.010572     12.000000
  0.007525  0.069404  0.000950     12.000000
  0.030100  0.000000 -0.056784      6.000000
  0.033863 -0.017351 -0.066406     12.000000
  0.037625 -0.034702 -0.076028     12.000000
 -0.007525  0.173510  0.039439     12.000000
 -0.003763  0.156159  0.029816     12.000000
  0.000000  0.138808  0.020194     12.000000
  0.003763  0.121457  0.010572     12.000000
  0.007525  0.104106  0.000950     12.000000
  0.011288  0.086755 -0.008673     12.000000
  0.037625  0.000000 -0.076028      6.000000
  0.041388 -0.017351 -0.085651     12.000000
 -0.003763  0.190861  0.029816     12.000000
  0.000000  0.173510  0.020194     12.000000
  0.003763  0.156159  0.010572     12.000000
  0.007525  0.138808  0.000950     12.000000
  0.011288  0.121457 -0.008673     12.000000
  0.015050  0.104106 -0.018295     12.000000
  0.045150  0.000000 -0.095273      6.000000
  0.000000  0.208212  0.020194     12.000000
  0.003763  0.190861  0.010572     12.000000
  0.007525  0.173510  0.000950     12.000000
  0.011288  0.156159 -0.008673     12.000000
  0.015050  0.138808 -0.018295     12.000000
  0.018813  0.121457 -0.027917     12.000000
 -0.045150  0.000000  0.135661      6.000000
 -0.041388 -0.017351  0.126039     12.000000
 -0.037625 -0.034702  0.116417     12.000000
 -0.033863 -0.052053  0.106794     12.000000
 -0.030100 -0.069404  0.097172     12.000000
 -0.037625  0.000000  0.116417      6.000000
 -0.033863 -0.017351  0.106794     12.000000
 -0.030100 -0.034702  0.097172     12.000000
 -0.026338 -0.052053  0.087550     12.000000
 -0.030100  0.000000  0.097172      6.000000
 -0.026338 -0.017351  0.087550     12.000000
 -0.022575 -0.034702  0.077928     12.000000
 -0.022575  0.000000  0.077928      6.000000
 -0.018813 -0.017351  0.068305     12.000000
 -0.015050  0.000000  0.058683      6.000000
  0.015050  0.000000  0.001899      2.000000
  0.018813 -0.017351 -0.007723      6.000000
  0.022575 -0.034702 -0.017345      6.000000
  0.026338 -0.052053 -0.026968      6.000000
  0.030100 -0.069404 -0.036590      6.000000
 -0.015050  0.138808  0.078877      6.000000
 -0.011288  0.121457  0.069255      6.000000
 -0.007525  0.104106  0.059633      6.000000
 -0.003763  0.086755  0.050010      6.000000
  0.000000  0.069404  0.040388      6.000000
  0.022575  0.000000 -0.017345      6.000000
  0.026338 -0.017351 -0.026968     12.000000
  0.030100 -0.034702 -0.036590     12.000000
  0.033863 -0.052053 -0.046212     12.000000
 -0.011288  0.156159  0.069255     12.000000
 -0.007525  0.138808  0.059633     12.000000
 -0.003763  0.121457  0.050010     12.000000
  0.000000  0.104106  0.040388     12.000000
  0.003763  0.086755  0.030766     12.000000
  0.030100  0.000000 -0.036590      6.000000
  0.033863 -0.017351 -0.046212     12.000000
  0.037625 -0.034702 -0.055834     12.000000
 -0.007525  0.173510  0.059633     12.000000
 -0.003763  0.156159  0.050010     12.000000
  0.000000  0.138808  0.040388     12.000000
  0.003763  0.121457  0.030766     12.000000
  0.007525  0.104106  0.021144     12.000000
  0.037625  0.000000 -0.055834      6.000000
  0.041388 -0.017351 -0.065457     12.000000
 -0.003763  0.190861  0.050010     12.000000
  0.000000  0.173510  0.040388     12.000000
  0.003763  0.156159  0.030766     12.000000
  0.007525  0.138808  0.021144     12.000000
  0.011288  0.121457  0.011521     12.000000
  0.045150  0.000000 -0.075079      6.000000
  0.000000  0.208212  0.040388     12.000000
  0.003763  0.190861  0.030766     12.000000
  0.007525  0.173510  0.021144     12.000000
  0.011288  0.156159  0.011521     12.000000
  0.015050  0.138808  0.001899     12.000000
 -0.045150  0.000000  0.155855      6.000000
 -0.041388 -0.017351  0.146233     12.000000
 -0.037625 -0.034702  0.136611     12.000000
 -0.033863 -0.052053  0.126988     12.000000
 -0.037625  0.000000  0.136611      6.000000
 -0.033863 -0.017351  0.126988     12.000000
 -0.030100 -0.034702  0.117366     12.000000
 -0.030100  0.000000  0.117366      6.000000
 -0.026338 -0.017351  0.107744     12.000000
 -0.022575  0.000000  0.098122      6.000000
  0.022575  0.000000  0.002849      2.000000
  0.026338 -0.017351 -0.006773      6.000000
  0.030100 -0.034702 -0.016396      6.000000
  0.033863 -0.052053 -0.026018      6.000000
 -0.011288  0.156159  0.089449      6.000000
 -0.007525  0.138808  0.079827      6.000000
 -0.003763  0.121457  0.070204      6.000000
  0.000000  0.104106  0.060582      6.000000
  0.030100  0.000000 -0.016396      6.000000
  0.033863 -0.017351 -0.026018     12.000000
  0.037625 -0.034702 -0.035640     12.000000
 -0.007525  0.173510  0.079827     12.000000
 -0.003763  0.156159  0.070204     12.000000
  0.000000  0.138808  0.060582     12.000000
  0.003763  0.121457  0.050960     12.000000
  0.037625  0.000000 -0.035640      6.000000
  0.041388 -0.017351 -0.045262     12.000000
 -0.003763  0.190861  0.070204     12.000000
  0.000000  0.173510  0.060582     12.000000
  0.003763  0.156159  0.050960     12.000000
  0.007525  0.138808  0.041338     12.000000
  0.045150  0.000000 -0.054885      6.000000
  0.000000  0.208212  0.060582     12.000000
  0.003763  0.190861  0.050960     12.000000
  0.007525  0.173510  0.041338     12.000000
  0.011288  0.156159  0.031715     12.000000
 -0.045150  0.000000  0.176049      6.000000
 -0.041388 -0.017351  0.166427     12.000000
 -0.037625 -0.034702  0.156805     12.000000
 -0.037625  0.000000  0.156805      6.000000
 -0.033863 -0.017351  0.147182     12.000000
 -0.030100  0.000000  0.137560      6.000000
  0.030100  0.000000  0.003798      2.000000
  0.033863 -0.017351 -0.005824      6.000000
  0.037625 -0.034702 -0.015446      6.000000
 -0.007525  0.173510  0.100021      6.000000
 -0.003763  0.156159  0.090399      6.000000
  0.000000  0.138808  0.080776      6.000000
  0.037625  0.000000 -0.015446      6.000000
  0.041388 -0.017351 -0.025068     12.000000
 -0.003763  0.190861  0.090399     12.000000
  0.000000  0.173510  0.080776     12.000000
  0.003763  0.156159  0.071154     12.000000
  0.045150  0.000000 -0.034691      6.000000
  0.000000  0.208212  0.080776     12.000000
  0.003763  0.190861  0.071154     12.000000
  0.007525  0.173510  0.061532     12.000000
 -0.045150  0.000000  0.196243      6.000000
 -0.041388 -0.017351  0.186621     12.000000
 -0.037625  0.000000  0.176999      6.000000
  0.037625  0.000000  0.004748      2.000000
  0.041388 -0.017351 -0.004874      6.000000
 -0.003763  0.190861  0.110593      6.000000
  0.000000  0.173510  0.100970      6.000000
  0.045150  0.000000 -0.014497      6.000000
  0.000000  0.208212  0.100970     12.000000
  0.003763  0.190861  0.091348     12.000000
 -0.045150  0.000000  0.216437      6.000000
  0.045150  0.000000  0.005698      2.000000
  0.000000  0.208212  0.121164      6.000000
 
 TETIRR: Found   1105 inequivalent tetrahedra from    13182
 
 Subroutine IBZKPT_HF returns following result:
 ==============================================
 
 Found   2197 k-points in 1st BZ
 the following   2197 k-points will be used (e.g. in the exchange kernel)
 Following reciprocal coordinates:   # in IRBZ
  0.000000  0.000000  0.000000    0.00045517   1 t-inv F
  0.076923  0.000000  0.000000    0.00045517   2 t-inv F
  0.153846  0.000000  0.000000    0.00045517   3 t-inv F
  0.230769  0.000000  0.000000    0.00045517   4 t-inv F
  0.307692  0.000000  0.000000    0.00045517   5 t-inv F
  0.384615  0.000000  0.000000    0.00045517   6 t-inv F
  0.461538  0.000000  0.000000    0.00045517   7 t-inv F
  0.076923  0.076923  0.000000    0.00045517   8 t-inv F
  0.153846  0.076923  0.000000    0.00045517   9 t-inv F
  0.230769  0.076923  0.000000    0.00045517  10 t-inv F
  0.307692  0.076923  0.000000    0.00045517  11 t-inv F
  0.384615  0.076923  0.000000    0.00045517  12 t-inv F
  0.461538  0.076923  0.000000    0.00045517  13 t-inv F
 -0.461538  0.076923  0.000000    0.00045517  14 t-inv F
 -0.384615  0.076923  0.000000    0.00045517  15 t-inv F
 -0.307692  0.076923  0.000000    0.00045517  16 t-inv F
 -0.230769  0.076923  0.000000    0.00045517  17 t-inv F
 -0.153846  0.076923  0.000000    0.00045517  18 t-inv F
 -0.076923  0.076923  0.000000    0.00045517  19 t-inv F
  0.153846  0.153846  0.000000    0.00045517  20 t-inv F
  0.230769  0.153846  0.000000    0.00045517  21 t-inv F
  0.307692  0.153846  0.000000    0.00045517  22 t-inv F
  0.384615  0.153846  0.000000    0.00045517  23 t-inv F
  0.461538  0.153846  0.000000    0.00045517  24 t-inv F
 -0.461538  0.153846  0.000000    0.00045517  25 t-inv F
 -0.384615  0.153846  0.000000    0.00045517  26 t-inv F
 -0.307692  0.153846  0.000000    0.00045517  27 t-inv F
 -0.230769  0.153846  0.000000    0.00045517  28 t-inv F
 -0.153846  0.153846  0.000000    0.00045517  29 t-inv F
  0.230769  0.230769  0.000000    0.00045517  30 t-inv F
  0.307692  0.230769  0.000000    0.00045517  31 t-inv F
  0.384615  0.230769  0.000000    0.00045517  32 t-inv F
  0.461538  0.230769  0.000000    0.00045517  33 t-inv F
 -0.461538  0.230769  0.000000    0.00045517  34 t-inv F
 -0.384615  0.230769  0.000000    0.00045517  35 t-inv F
 -0.307692  0.230769  0.000000    0.00045517  36 t-inv F
 -0.230769  0.230769  0.000000    0.00045517  37 t-inv F
  0.307692  0.307692  0.000000    0.00045517  38 t-inv F
  0.384615  0.307692  0.000000    0.00045517  39 t-inv F
  0.461538  0.307692  0.000000    0.00045517  40 t-inv F
 -0.461538  0.307692  0.000000    0.00045517  41 t-inv F
 -0.384615  0.307692  0.000000    0.00045517  42 t-inv F
 -0.307692  0.307692  0.000000    0.00045517  43 t-inv F
  0.384615  0.384615  0.000000    0.00045517  44 t-inv F
  0.461538  0.384615  0.000000    0.00045517  45 t-inv F
 -0.461538  0.384615  0.000000    0.00045517  46 t-inv F
 -0.384615  0.384615  0.000000    0.00045517  47 t-inv F
  0.461538  0.461538  0.000000    0.00045517  48 t-inv F
 -0.461538  0.461538  0.000000    0.00045517  49 t-inv F
  0.076923  0.076923  0.076923    0.00045517  50 t-inv F
  0.153846  0.076923  0.076923    0.00045517  51 t-inv F
  0.230769  0.076923  0.076923    0.00045517  52 t-inv F
  0.307692  0.076923  0.076923    0.00045517  53 t-inv F
  0.384615  0.076923  0.076923    0.00045517  54 t-inv F
  0.461538  0.076923  0.076923    0.00045517  55 t-inv F
 -0.461538  0.076923  0.076923    0.00045517  56 t-inv F
 -0.384615  0.076923  0.076923    0.00045517  57 t-inv F
 -0.307692  0.076923  0.076923    0.00045517  58 t-inv F
 -0.230769  0.076923  0.076923    0.00045517  59 t-inv F
 -0.153846  0.076923  0.076923    0.00045517  60 t-inv F
 -0.076923  0.076923  0.076923    0.00045517  61 t-inv F
  0.153846  0.153846  0.076923    0.00045517  62 t-inv F
  0.230769  0.153846  0.076923    0.00045517  63 t-inv F
  0.307692  0.153846  0.076923    0.00045517  64 t-inv F
  0.384615  0.153846  0.076923    0.00045517  65 t-inv F
  0.461538  0.153846  0.076923    0.00045517  66 t-inv F
 -0.461538  0.153846  0.076923    0.00045517  67 t-inv F
 -0.384615  0.153846  0.076923    0.00045517  68 t-inv F
 -0.307692  0.153846  0.076923    0.00045517  69 t-inv F
 -0.230769  0.153846  0.076923    0.00045517  70 t-inv F
 -0.153846  0.153846  0.076923    0.00045517  71 t-inv F
 -0.076923  0.153846  0.076923    0.00045517  72 t-inv F
  0.230769  0.230769  0.076923    0.00045517  73 t-inv F
  0.307692  0.230769  0.076923    0.00045517  74 t-inv F
  0.384615  0.230769  0.076923    0.00045517  75 t-inv F
  0.461538  0.230769  0.076923    0.00045517  76 t-inv F
 -0.461538  0.230769  0.076923    0.00045517  77 t-inv F
 -0.384615  0.230769  0.076923    0.00045517  78 t-inv F
 -0.307692  0.230769  0.076923    0.00045517  79 t-inv F
 -0.230769  0.230769  0.076923    0.00045517  80 t-inv F
 -0.153846  0.230769  0.076923    0.00045517  81 t-inv F
 -0.076923  0.230769  0.076923    0.00045517  82 t-inv F
  0.307692  0.307692  0.076923    0.00045517  83 t-inv F
  0.384615  0.307692  0.076923    0.00045517  84 t-inv F
  0.461538  0.307692  0.076923    0.00045517  85 t-inv F
 -0.461538  0.307692  0.076923    0.00045517  86 t-inv F
 -0.384615  0.307692  0.076923    0.00045517  87 t-inv F
 -0.307692  0.307692  0.076923    0.00045517  88 t-inv F
 -0.230769  0.307692  0.076923    0.00045517  89 t-inv F
 -0.153846  0.307692  0.076923    0.00045517  90 t-inv F
 -0.076923  0.307692  0.076923    0.00045517  91 t-inv F
  0.384615  0.384615  0.076923    0.00045517  92 t-inv F
  0.461538  0.384615  0.076923    0.00045517  93 t-inv F
 -0.461538  0.384615  0.076923    0.00045517  94 t-inv F
 -0.384615  0.384615  0.076923    0.00045517  95 t-inv F
 -0.307692  0.384615  0.076923    0.00045517  96 t-inv F
 -0.230769  0.384615  0.076923    0.00045517  97 t-inv F
 -0.153846  0.384615  0.076923    0.00045517  98 t-inv F
 -0.076923  0.384615  0.076923    0.00045517  99 t-inv F
  0.461538  0.461538  0.076923    0.00045517 100 t-inv F
 -0.461538  0.461538  0.076923    0.00045517 101 t-inv F
 -0.384615  0.461538  0.076923    0.00045517 102 t-inv F
 -0.307692  0.461538  0.076923    0.00045517 103 t-inv F
 -0.230769  0.461538  0.076923    0.00045517 104 t-inv F
 -0.153846  0.461538  0.076923    0.00045517 105 t-inv F
 -0.076923  0.461538  0.076923    0.00045517 106 t-inv F
 -0.461538 -0.461538  0.076923    0.00045517 107 t-inv F
 -0.384615 -0.461538  0.076923    0.00045517 108 t-inv F
 -0.307692 -0.461538  0.076923    0.00045517 109 t-inv F
 -0.230769 -0.461538  0.076923    0.00045517 110 t-inv F
 -0.153846 -0.461538  0.076923    0.00045517 111 t-inv F
 -0.384615 -0.384615  0.076923    0.00045517 112 t-inv F
 -0.307692 -0.384615  0.076923    0.00045517 113 t-inv F
 -0.230769 -0.384615  0.076923    0.00045517 114 t-inv F
 -0.153846 -0.384615  0.076923    0.00045517 115 t-inv F
 -0.307692 -0.307692  0.076923    0.00045517 116 t-inv F
 -0.230769 -0.307692  0.076923    0.00045517 117 t-inv F
 -0.153846 -0.307692  0.076923    0.00045517 118 t-inv F
 -0.230769 -0.230769  0.076923    0.00045517 119 t-inv F
 -0.153846 -0.230769  0.076923    0.00045517 120 t-inv F
 -0.153846 -0.153846  0.076923    0.00045517 121 t-inv F
  0.153846  0.153846  0.153846    0.00045517 122 t-inv F
  0.230769  0.153846  0.153846    0.00045517 123 t-inv F
  0.307692  0.153846  0.153846    0.00045517 124 t-inv F
  0.384615  0.153846  0.153846    0.00045517 125 t-inv F
  0.461538  0.153846  0.153846    0.00045517 126 t-inv F
 -0.461538  0.153846  0.153846    0.00045517 127 t-inv F
 -0.384615  0.153846  0.153846    0.00045517 128 t-inv F
 -0.307692  0.153846  0.153846    0.00045517 129 t-inv F
 -0.230769  0.153846  0.153846    0.00045517 130 t-inv F
 -0.153846  0.153846  0.153846    0.00045517 131 t-inv F
  0.230769  0.230769  0.153846    0.00045517 132 t-inv F
  0.307692  0.230769  0.153846    0.00045517 133 t-inv F
  0.384615  0.230769  0.153846    0.00045517 134 t-inv F
  0.461538  0.230769  0.153846    0.00045517 135 t-inv F
 -0.461538  0.230769  0.153846    0.00045517 136 t-inv F
 -0.384615  0.230769  0.153846    0.00045517 137 t-inv F
 -0.307692  0.230769  0.153846    0.00045517 138 t-inv F
 -0.230769  0.230769  0.153846    0.00045517 139 t-inv F
 -0.153846  0.230769  0.153846    0.00045517 140 t-inv F
  0.307692  0.307692  0.153846    0.00045517 141 t-inv F
  0.384615  0.307692  0.153846    0.00045517 142 t-inv F
  0.461538  0.307692  0.153846    0.00045517 143 t-inv F
 -0.461538  0.307692  0.153846    0.00045517 144 t-inv F
 -0.384615  0.307692  0.153846    0.00045517 145 t-inv F
 -0.307692  0.307692  0.153846    0.00045517 146 t-inv F
 -0.230769  0.307692  0.153846    0.00045517 147 t-inv F
 -0.153846  0.307692  0.153846    0.00045517 148 t-inv F
  0.384615  0.384615  0.153846    0.00045517 149 t-inv F
  0.461538  0.384615  0.153846    0.00045517 150 t-inv F
 -0.461538  0.384615  0.153846    0.00045517 151 t-inv F
 -0.384615  0.384615  0.153846    0.00045517 152 t-inv F
 -0.307692  0.384615  0.153846    0.00045517 153 t-inv F
 -0.230769  0.384615  0.153846    0.00045517 154 t-inv F
 -0.153846  0.384615  0.153846    0.00045517 155 t-inv F
  0.461538  0.461538  0.153846    0.00045517 156 t-inv F
 -0.461538  0.461538  0.153846    0.00045517 157 t-inv F
 -0.384615  0.461538  0.153846    0.00045517 158 t-inv F
 -0.307692  0.461538  0.153846    0.00045517 159 t-inv F
 -0.230769  0.461538  0.153846    0.00045517 160 t-inv F
 -0.153846  0.461538  0.153846    0.00045517 161 t-inv F
 -0.461538 -0.461538  0.153846    0.00045517 162 t-inv F
 -0.384615 -0.461538  0.153846    0.00045517 163 t-inv F
 -0.307692 -0.461538  0.153846    0.00045517 164 t-inv F
 -0.230769 -0.461538  0.153846    0.00045517 165 t-inv F
 -0.384615 -0.384615  0.153846    0.00045517 166 t-inv F
 -0.307692 -0.384615  0.153846    0.00045517 167 t-inv F
 -0.230769 -0.384615  0.153846    0.00045517 168 t-inv F
 -0.307692 -0.307692  0.153846    0.00045517 169 t-inv F
 -0.230769 -0.307692  0.153846    0.00045517 170 t-inv F
 -0.230769 -0.230769  0.153846    0.00045517 171 t-inv F
  0.230769  0.230769  0.230769    0.00045517 172 t-inv F
  0.307692  0.230769  0.230769    0.00045517 173 t-inv F
  0.384615  0.230769  0.230769    0.00045517 174 t-inv F
  0.461538  0.230769  0.230769    0.00045517 175 t-inv F
 -0.461538  0.230769  0.230769    0.00045517 176 t-inv F
 -0.384615  0.230769  0.230769    0.00045517 177 t-inv F
 -0.307692  0.230769  0.230769    0.00045517 178 t-inv F
 -0.230769  0.230769  0.230769    0.00045517 179 t-inv F
  0.307692  0.307692  0.230769    0.00045517 180 t-inv F
  0.384615  0.307692  0.230769    0.00045517 181 t-inv F
  0.461538  0.307692  0.230769    0.00045517 182 t-inv F
 -0.461538  0.307692  0.230769    0.00045517 183 t-inv F
 -0.384615  0.307692  0.230769    0.00045517 184 t-inv F
 -0.307692  0.307692  0.230769    0.00045517 185 t-inv F
 -0.230769  0.307692  0.230769    0.00045517 186 t-inv F
  0.384615  0.384615  0.230769    0.00045517 187 t-inv F
  0.461538  0.384615  0.230769    0.00045517 188 t-inv F
 -0.461538  0.384615  0.230769    0.00045517 189 t-inv F
 -0.384615  0.384615  0.230769    0.00045517 190 t-inv F
 -0.307692  0.384615  0.230769    0.00045517 191 t-inv F
 -0.230769  0.384615  0.230769    0.00045517 192 t-inv F
  0.461538  0.461538  0.230769    0.00045517 193 t-inv F
 -0.461538  0.461538  0.230769    0.00045517 194 t-inv F
 -0.384615  0.461538  0.230769    0.00045517 195 t-inv F
 -0.307692  0.461538  0.230769    0.00045517 196 t-inv F
 -0.230769  0.461538  0.230769    0.00045517 197 t-inv F
 -0.461538 -0.461538  0.230769    0.00045517 198 t-inv F
 -0.384615 -0.461538  0.230769    0.00045517 199 t-inv F
 -0.307692 -0.461538  0.230769    0.00045517 200 t-inv F
 -0.384615 -0.384615  0.230769    0.00045517 201 t-inv F
 -0.307692 -0.384615  0.230769    0.00045517 202 t-inv F
 -0.307692 -0.307692  0.230769    0.00045517 203 t-inv F
  0.307692  0.307692  0.307692    0.00045517 204 t-inv F
  0.384615  0.307692  0.307692    0.00045517 205 t-inv F
  0.461538  0.307692  0.307692    0.00045517 206 t-inv F
 -0.461538  0.307692  0.307692    0.00045517 207 t-inv F
 -0.384615  0.307692  0.307692    0.00045517 208 t-inv F
 -0.307692  0.307692  0.307692    0.00045517 209 t-inv F
  0.384615  0.384615  0.307692    0.00045517 210 t-inv F
  0.461538  0.384615  0.307692    0.00045517 211 t-inv F
 -0.461538  0.384615  0.307692    0.00045517 212 t-inv F
 -0.384615  0.384615  0.307692    0.00045517 213 t-inv F
 -0.307692  0.384615  0.307692    0.00045517 214 t-inv F
  0.461538  0.461538  0.307692    0.00045517 215 t-inv F
 -0.461538  0.461538  0.307692    0.00045517 216 t-inv F
 -0.384615  0.461538  0.307692    0.00045517 217 t-inv F
 -0.307692  0.461538  0.307692    0.00045517 218 t-inv F
 -0.461538 -0.461538  0.307692    0.00045517 219 t-inv F
 -0.384615 -0.461538  0.307692    0.00045517 220 t-inv F
 -0.384615 -0.384615  0.307692    0.00045517 221 t-inv F
  0.384615  0.384615  0.384615    0.00045517 222 t-inv F
  0.461538  0.384615  0.384615    0.00045517 223 t-inv F
 -0.461538  0.384615  0.384615    0.00045517 224 t-inv F
 -0.384615  0.384615  0.384615    0.00045517 225 t-inv F
  0.461538  0.461538  0.384615    0.00045517 226 t-inv F
 -0.461538  0.461538  0.384615    0.00045517 227 t-inv F
 -0.384615  0.461538  0.384615    0.00045517 228 t-inv F
 -0.461538 -0.461538  0.384615    0.00045517 229 t-inv F
  0.461538  0.461538  0.461538    0.00045517 230 t-inv F
 -0.461538  0.461538  0.461538    0.00045517 231 t-inv F
 -0.076923 -0.000000 -0.000000    0.00045517   2 t-inv F
  0.000000  0.076923  0.000000    0.00045517   2 t-inv F
 -0.000000 -0.076923 -0.000000    0.00045517   2 t-inv F
  0.000000  0.000000  0.076923    0.00045517   2 t-inv F
 -0.000000 -0.000000 -0.076923    0.00045517   2 t-inv F
 -0.153846 -0.000000 -0.000000    0.00045517   3 t-inv F
  0.000000  0.153846  0.000000    0.00045517   3 t-inv F
 -0.000000 -0.153846 -0.000000    0.00045517   3 t-inv F
  0.000000  0.000000  0.153846    0.00045517   3 t-inv F
 -0.000000 -0.000000 -0.153846    0.00045517   3 t-inv F
 -0.230769 -0.000000 -0.000000    0.00045517   4 t-inv F
  0.000000  0.230769  0.000000    0.00045517   4 t-inv F
 -0.000000 -0.230769 -0.000000    0.00045517   4 t-inv F
  0.000000  0.000000  0.230769    0.00045517   4 t-inv F
 -0.000000 -0.000000 -0.230769    0.00045517   4 t-inv F
 -0.307692 -0.000000 -0.000000    0.00045517   5 t-inv F
  0.000000  0.307692  0.000000    0.00045517   5 t-inv F
 -0.000000 -0.307692 -0.000000    0.00045517   5 t-inv F
  0.000000  0.000000  0.307692    0.00045517   5 t-inv F
 -0.000000 -0.000000 -0.307692    0.00045517   5 t-inv F
 -0.384615 -0.000000 -0.000000    0.00045517   6 t-inv F
  0.000000  0.384615  0.000000    0.00045517   6 t-inv F
 -0.000000 -0.384615 -0.000000    0.00045517   6 t-inv F
  0.000000  0.000000  0.384615    0.00045517   6 t-inv F
 -0.000000 -0.000000 -0.384615    0.00045517   6 t-inv F
 -0.461538 -0.000000 -0.000000    0.00045517   7 t-inv F
  0.000000  0.461538  0.000000    0.00045517   7 t-inv F
 -0.000000 -0.461538 -0.000000    0.00045517   7 t-inv F
  0.000000  0.000000  0.461538    0.00045517   7 t-inv F
 -0.000000 -0.000000 -0.461538    0.00045517   7 t-inv F
 -0.076923 -0.076923 -0.000000    0.00045517   8 t-inv F
 -0.076923 -0.000000 -0.076923    0.00045517   8 t-inv F
  0.076923  0.000000  0.076923    0.00045517   8 t-inv F
  0.000000  0.076923  0.076923    0.00045517   8 t-inv F
 -0.000000 -0.076923 -0.076923    0.00045517   8 t-inv F
 -0.153846 -0.076923 -0.000000    0.00045517   9 t-inv F
 -0.153846 -0.000000 -0.076923    0.00045517   9 t-inv F
  0.153846  0.000000  0.076923    0.00045517   9 t-inv F
  0.000000  0.153846  0.076923    0.00045517   9 t-inv F
 -0.000000 -0.153846 -0.076923    0.00045517   9 t-inv F
 -0.076923 -0.153846 -0.000000    0.00045517   9 t-inv F
  0.076923  0.153846  0.000000    0.00045517   9 t-inv F
  0.076923  0.000000  0.153846    0.00045517   9 t-inv F
 -0.076923 -0.000000 -0.153846    0.00045517   9 t-inv F
 -0.000000 -0.076923 -0.153846    0.00045517   9 t-inv F
  0.000000  0.076923  0.153846    0.00045517   9 t-inv F
 -0.230769 -0.076923 -0.000000    0.00045517  10 t-inv F
 -0.230769 -0.000000 -0.076923    0.00045517  10 t-inv F
  0.230769  0.000000  0.076923    0.00045517  10 t-inv F
  0.000000  0.230769  0.076923    0.00045517  10 t-inv F
 -0.000000 -0.230769 -0.076923    0.00045517  10 t-inv F
 -0.076923 -0.230769 -0.000000    0.00045517  10 t-inv F
  0.076923  0.230769  0.000000    0.00045517  10 t-inv F
  0.076923  0.000000  0.230769    0.00045517  10 t-inv F
 -0.076923 -0.000000 -0.230769    0.00045517  10 t-inv F
 -0.000000 -0.076923 -0.230769    0.00045517  10 t-inv F
  0.000000  0.076923  0.230769    0.00045517  10 t-inv F
 -0.307692 -0.076923 -0.000000    0.00045517  11 t-inv F
 -0.307692 -0.000000 -0.076923    0.00045517  11 t-inv F
  0.307692  0.000000  0.076923    0.00045517  11 t-inv F
  0.000000  0.307692  0.076923    0.00045517  11 t-inv F
 -0.000000 -0.307692 -0.076923    0.00045517  11 t-inv F
 -0.076923 -0.307692 -0.000000    0.00045517  11 t-inv F
  0.076923  0.307692  0.000000    0.00045517  11 t-inv F
  0.076923  0.000000  0.307692    0.00045517  11 t-inv F
 -0.076923 -0.000000 -0.307692    0.00045517  11 t-inv F
 -0.000000 -0.076923 -0.307692    0.00045517  11 t-inv F
  0.000000  0.076923  0.307692    0.00045517  11 t-inv F
 -0.384615 -0.076923 -0.000000    0.00045517  12 t-inv F
 -0.384615 -0.000000 -0.076923    0.00045517  12 t-inv F
  0.384615  0.000000  0.076923    0.00045517  12 t-inv F
  0.000000  0.384615  0.076923    0.00045517  12 t-inv F
 -0.000000 -0.384615 -0.076923    0.00045517  12 t-inv F
 -0.076923 -0.384615 -0.000000    0.00045517  12 t-inv F
  0.076923  0.384615  0.000000    0.00045517  12 t-inv F
  0.076923  0.000000  0.384615    0.00045517  12 t-inv F
 -0.076923 -0.000000 -0.384615    0.00045517  12 t-inv F
 -0.000000 -0.076923 -0.384615    0.00045517  12 t-inv F
  0.000000  0.076923  0.384615    0.00045517  12 t-inv F
 -0.461538 -0.076923 -0.000000    0.00045517  13 t-inv F
 -0.461538 -0.000000 -0.076923    0.00045517  13 t-inv F
  0.461538  0.000000  0.076923    0.00045517  13 t-inv F
  0.000000  0.461538  0.076923    0.00045517  13 t-inv F
 -0.000000 -0.461538 -0.076923    0.00045517  13 t-inv F
 -0.076923 -0.461538 -0.000000    0.00045517  13 t-inv F
  0.076923  0.461538  0.000000    0.00045517  13 t-inv F
  0.076923  0.000000  0.461538    0.00045517  13 t-inv F
 -0.076923 -0.000000 -0.461538    0.00045517  13 t-inv F
 -0.000000 -0.076923 -0.461538    0.00045517  13 t-inv F
  0.000000  0.076923  0.461538    0.00045517  13 t-inv F
  0.461538 -0.076923 -0.000000    0.00045517  14 t-inv F
  0.461538 -0.000000 -0.076923    0.00045517  14 t-inv F
 -0.461538  0.000000  0.076923    0.00045517  14 t-inv F
  0.000000 -0.461538  0.076923    0.00045517  14 t-inv F
 -0.000000  0.461538 -0.076923    0.00045517  14 t-inv F
 -0.076923  0.461538 -0.000000    0.00045517  14 t-inv F
  0.076923 -0.461538  0.000000    0.00045517  14 t-inv F
  0.076923  0.000000 -0.461538    0.00045517  14 t-inv F
 -0.076923 -0.000000  0.461538    0.00045517  14 t-inv F
 -0.000000 -0.076923  0.461538    0.00045517  14 t-inv F
  0.000000  0.076923 -0.461538    0.00045517  14 t-inv F
  0.384615 -0.076923 -0.000000    0.00045517  15 t-inv F
  0.384615 -0.000000 -0.076923    0.00045517  15 t-inv F
 -0.384615  0.000000  0.076923    0.00045517  15 t-inv F
  0.000000 -0.384615  0.076923    0.00045517  15 t-inv F
 -0.000000  0.384615 -0.076923    0.00045517  15 t-inv F
 -0.076923  0.384615 -0.000000    0.00045517  15 t-inv F
  0.076923 -0.384615  0.000000    0.00045517  15 t-inv F
  0.076923  0.000000 -0.384615    0.00045517  15 t-inv F
 -0.076923 -0.000000  0.384615    0.00045517  15 t-inv F
 -0.000000 -0.076923  0.384615    0.00045517  15 t-inv F
  0.000000  0.076923 -0.384615    0.00045517  15 t-inv F
  0.307692 -0.076923 -0.000000    0.00045517  16 t-inv F
  0.307692 -0.000000 -0.076923    0.00045517  16 t-inv F
 -0.307692  0.000000  0.076923    0.00045517  16 t-inv F
  0.000000 -0.307692  0.076923    0.00045517  16 t-inv F
 -0.000000  0.307692 -0.076923    0.00045517  16 t-inv F
 -0.076923  0.307692 -0.000000    0.00045517  16 t-inv F
  0.076923 -0.307692  0.000000    0.00045517  16 t-inv F
  0.076923  0.000000 -0.307692    0.00045517  16 t-inv F
 -0.076923 -0.000000  0.307692    0.00045517  16 t-inv F
 -0.000000 -0.076923  0.307692    0.00045517  16 t-inv F
  0.000000  0.076923 -0.307692    0.00045517  16 t-inv F
  0.230769 -0.076923 -0.000000    0.00045517  17 t-inv F
  0.230769 -0.000000 -0.076923    0.00045517  17 t-inv F
 -0.230769  0.000000  0.076923    0.00045517  17 t-inv F
  0.000000 -0.230769  0.076923    0.00045517  17 t-inv F
 -0.000000  0.230769 -0.076923    0.00045517  17 t-inv F
 -0.076923  0.230769 -0.000000    0.00045517  17 t-inv F
  0.076923 -0.230769  0.000000    0.00045517  17 t-inv F
  0.076923  0.000000 -0.230769    0.00045517  17 t-inv F
 -0.076923 -0.000000  0.230769    0.00045517  17 t-inv F
 -0.000000 -0.076923  0.230769    0.00045517  17 t-inv F
  0.000000  0.076923 -0.230769    0.00045517  17 t-inv F
  0.153846 -0.076923 -0.000000    0.00045517  18 t-inv F
  0.153846 -0.000000 -0.076923    0.00045517  18 t-inv F
 -0.153846  0.000000  0.076923    0.00045517  18 t-inv F
  0.000000 -0.153846  0.076923    0.00045517  18 t-inv F
 -0.000000  0.153846 -0.076923    0.00045517  18 t-inv F
 -0.076923  0.153846 -0.000000    0.00045517  18 t-inv F
  0.076923 -0.153846  0.000000    0.00045517  18 t-inv F
  0.076923  0.000000 -0.153846    0.00045517  18 t-inv F
 -0.076923 -0.000000  0.153846    0.00045517  18 t-inv F
 -0.000000 -0.076923  0.153846    0.00045517  18 t-inv F
  0.000000  0.076923 -0.153846    0.00045517  18 t-inv F
  0.076923 -0.076923 -0.000000    0.00045517  19 t-inv F
  0.076923 -0.000000 -0.076923    0.00045517  19 t-inv F
 -0.076923  0.000000  0.076923    0.00045517  19 t-inv F
  0.000000 -0.076923  0.076923    0.00045517  19 t-inv F
 -0.000000  0.076923 -0.076923    0.00045517  19 t-inv F
 -0.153846 -0.153846 -0.000000    0.00045517  20 t-inv F
 -0.153846 -0.000000 -0.153846    0.00045517  20 t-inv F
  0.153846  0.000000  0.153846    0.00045517  20 t-inv F
  0.000000  0.153846  0.153846    0.00045517  20 t-inv F
 -0.000000 -0.153846 -0.153846    0.00045517  20 t-inv F
 -0.230769 -0.153846 -0.000000    0.00045517  21 t-inv F
 -0.230769 -0.000000 -0.153846    0.00045517  21 t-inv F
  0.230769  0.000000  0.153846    0.00045517  21 t-inv F
  0.000000  0.230769  0.153846    0.00045517  21 t-inv F
 -0.000000 -0.230769 -0.153846    0.00045517  21 t-inv F
 -0.153846 -0.230769 -0.000000    0.00045517  21 t-inv F
  0.153846  0.230769  0.000000    0.00045517  21 t-inv F
  0.153846  0.000000  0.230769    0.00045517  21 t-inv F
 -0.153846 -0.000000 -0.230769    0.00045517  21 t-inv F
 -0.000000 -0.153846 -0.230769    0.00045517  21 t-inv F
  0.000000  0.153846  0.230769    0.00045517  21 t-inv F
 -0.307692 -0.153846 -0.000000    0.00045517  22 t-inv F
 -0.307692 -0.000000 -0.153846    0.00045517  22 t-inv F
  0.307692  0.000000  0.153846    0.00045517  22 t-inv F
  0.000000  0.307692  0.153846    0.00045517  22 t-inv F
 -0.000000 -0.307692 -0.153846    0.00045517  22 t-inv F
 -0.153846 -0.307692 -0.000000    0.00045517  22 t-inv F
  0.153846  0.307692  0.000000    0.00045517  22 t-inv F
  0.153846  0.000000  0.307692    0.00045517  22 t-inv F
 -0.153846 -0.000000 -0.307692    0.00045517  22 t-inv F
 -0.000000 -0.153846 -0.307692    0.00045517  22 t-inv F
  0.000000  0.153846  0.307692    0.00045517  22 t-inv F
 -0.384615 -0.153846 -0.000000    0.00045517  23 t-inv F
 -0.384615 -0.000000 -0.153846    0.00045517  23 t-inv F
  0.384615  0.000000  0.153846    0.00045517  23 t-inv F
  0.000000  0.384615  0.153846    0.00045517  23 t-inv F
 -0.000000 -0.384615 -0.153846    0.00045517  23 t-inv F
 -0.153846 -0.384615 -0.000000    0.00045517  23 t-inv F
  0.153846  0.384615  0.000000    0.00045517  23 t-inv F
  0.153846  0.000000  0.384615    0.00045517  23 t-inv F
 -0.153846 -0.000000 -0.384615    0.00045517  23 t-inv F
 -0.000000 -0.153846 -0.384615    0.00045517  23 t-inv F
  0.000000  0.153846  0.384615    0.00045517  23 t-inv F
 -0.461538 -0.153846 -0.000000    0.00045517  24 t-inv F
 -0.461538 -0.000000 -0.153846    0.00045517  24 t-inv F
  0.461538  0.000000  0.153846    0.00045517  24 t-inv F
  0.000000  0.461538  0.153846    0.00045517  24 t-inv F
 -0.000000 -0.461538 -0.153846    0.00045517  24 t-inv F
 -0.153846 -0.461538 -0.000000    0.00045517  24 t-inv F
  0.153846  0.461538  0.000000    0.00045517  24 t-inv F
  0.153846  0.000000  0.461538    0.00045517  24 t-inv F
 -0.153846 -0.000000 -0.461538    0.00045517  24 t-inv F
 -0.000000 -0.153846 -0.461538    0.00045517  24 t-inv F
  0.000000  0.153846  0.461538    0.00045517  24 t-inv F
  0.461538 -0.153846 -0.000000    0.00045517  25 t-inv F
  0.461538 -0.000000 -0.153846    0.00045517  25 t-inv F
 -0.461538  0.000000  0.153846    0.00045517  25 t-inv F
  0.000000 -0.461538  0.153846    0.00045517  25 t-inv F
 -0.000000  0.461538 -0.153846    0.00045517  25 t-inv F
 -0.153846  0.461538 -0.000000    0.00045517  25 t-inv F
  0.153846 -0.461538  0.000000    0.00045517  25 t-inv F
  0.153846  0.000000 -0.461538    0.00045517  25 t-inv F
 -0.153846 -0.000000  0.461538    0.00045517  25 t-inv F
 -0.000000 -0.153846  0.461538    0.00045517  25 t-inv F
  0.000000  0.153846 -0.461538    0.00045517  25 t-inv F
  0.384615 -0.153846 -0.000000    0.00045517  26 t-inv F
  0.384615 -0.000000 -0.153846    0.00045517  26 t-inv F
 -0.384615  0.000000  0.153846    0.00045517  26 t-inv F
  0.000000 -0.384615  0.153846    0.00045517  26 t-inv F
 -0.000000  0.384615 -0.153846    0.00045517  26 t-inv F
 -0.153846  0.384615 -0.000000    0.00045517  26 t-inv F
  0.153846 -0.384615  0.000000    0.00045517  26 t-inv F
  0.153846  0.000000 -0.384615    0.00045517  26 t-inv F
 -0.153846 -0.000000  0.384615    0.00045517  26 t-inv F
 -0.000000 -0.153846  0.384615    0.00045517  26 t-inv F
  0.000000  0.153846 -0.384615    0.00045517  26 t-inv F
  0.307692 -0.153846 -0.000000    0.00045517  27 t-inv F
  0.307692 -0.000000 -0.153846    0.00045517  27 t-inv F
 -0.307692  0.000000  0.153846    0.00045517  27 t-inv F
  0.000000 -0.307692  0.153846    0.00045517  27 t-inv F
 -0.000000  0.307692 -0.153846    0.00045517  27 t-inv F
 -0.153846  0.307692 -0.000000    0.00045517  27 t-inv F
  0.153846 -0.307692  0.000000    0.00045517  27 t-inv F
  0.153846  0.000000 -0.307692    0.00045517  27 t-inv F
 -0.153846 -0.000000  0.307692    0.00045517  27 t-inv F
 -0.000000 -0.153846  0.307692    0.00045517  27 t-inv F
  0.000000  0.153846 -0.307692    0.00045517  27 t-inv F
  0.230769 -0.153846 -0.000000    0.00045517  28 t-inv F
  0.230769 -0.000000 -0.153846    0.00045517  28 t-inv F
 -0.230769  0.000000  0.153846    0.00045517  28 t-inv F
  0.000000 -0.230769  0.153846    0.00045517  28 t-inv F
 -0.000000  0.230769 -0.153846    0.00045517  28 t-inv F
 -0.153846  0.230769 -0.000000    0.00045517  28 t-inv F
  0.153846 -0.230769  0.000000    0.00045517  28 t-inv F
  0.153846  0.000000 -0.230769    0.00045517  28 t-inv F
 -0.153846 -0.000000  0.230769    0.00045517  28 t-inv F
 -0.000000 -0.153846  0.230769    0.00045517  28 t-inv F
  0.000000  0.153846 -0.230769    0.00045517  28 t-inv F
  0.153846 -0.153846 -0.000000    0.00045517  29 t-inv F
  0.153846 -0.000000 -0.153846    0.00045517  29 t-inv F
 -0.153846  0.000000  0.153846    0.00045517  29 t-inv F
  0.000000 -0.153846  0.153846    0.00045517  29 t-inv F
 -0.000000  0.153846 -0.153846    0.00045517  29 t-inv F
 -0.230769 -0.230769 -0.000000    0.00045517  30 t-inv F
 -0.230769 -0.000000 -0.230769    0.00045517  30 t-inv F
  0.230769  0.000000  0.230769    0.00045517  30 t-inv F
  0.000000  0.230769  0.230769    0.00045517  30 t-inv F
 -0.000000 -0.230769 -0.230769    0.00045517  30 t-inv F
 -0.307692 -0.230769 -0.000000    0.00045517  31 t-inv F
 -0.307692 -0.000000 -0.230769    0.00045517  31 t-inv F
  0.307692  0.000000  0.230769    0.00045517  31 t-inv F
  0.000000  0.307692  0.230769    0.00045517  31 t-inv F
 -0.000000 -0.307692 -0.230769    0.00045517  31 t-inv F
 -0.230769 -0.307692 -0.000000    0.00045517  31 t-inv F
  0.230769  0.307692  0.000000    0.00045517  31 t-inv F
  0.230769  0.000000  0.307692    0.00045517  31 t-inv F
 -0.230769 -0.000000 -0.307692    0.00045517  31 t-inv F
 -0.000000 -0.230769 -0.307692    0.00045517  31 t-inv F
  0.000000  0.230769  0.307692    0.00045517  31 t-inv F
 -0.384615 -0.230769 -0.000000    0.00045517  32 t-inv F
 -0.384615 -0.000000 -0.230769    0.00045517  32 t-inv F
  0.384615  0.000000  0.230769    0.00045517  32 t-inv F
  0.000000  0.384615  0.230769    0.00045517  32 t-inv F
 -0.000000 -0.384615 -0.230769    0.00045517  32 t-inv F
 -0.230769 -0.384615 -0.000000    0.00045517  32 t-inv F
  0.230769  0.384615  0.000000    0.00045517  32 t-inv F
  0.230769  0.000000  0.384615    0.00045517  32 t-inv F
 -0.230769 -0.000000 -0.384615    0.00045517  32 t-inv F
 -0.000000 -0.230769 -0.384615    0.00045517  32 t-inv F
  0.000000  0.230769  0.384615    0.00045517  32 t-inv F
 -0.461538 -0.230769 -0.000000    0.00045517  33 t-inv F
 -0.461538 -0.000000 -0.230769    0.00045517  33 t-inv F
  0.461538  0.000000  0.230769    0.00045517  33 t-inv F
  0.000000  0.461538  0.230769    0.00045517  33 t-inv F
 -0.000000 -0.461538 -0.230769    0.00045517  33 t-inv F
 -0.230769 -0.461538 -0.000000    0.00045517  33 t-inv F
  0.230769  0.461538  0.000000    0.00045517  33 t-inv F
  0.230769  0.000000  0.461538    0.00045517  33 t-inv F
 -0.230769 -0.000000 -0.461538    0.00045517  33 t-inv F
 -0.000000 -0.230769 -0.461538    0.00045517  33 t-inv F
  0.000000  0.230769  0.461538    0.00045517  33 t-inv F
  0.461538 -0.230769 -0.000000    0.00045517  34 t-inv F
  0.461538 -0.000000 -0.230769    0.00045517  34 t-inv F
 -0.461538  0.000000  0.230769    0.00045517  34 t-inv F
  0.000000 -0.461538  0.230769    0.00045517  34 t-inv F
 -0.000000  0.461538 -0.230769    0.00045517  34 t-inv F
 -0.230769  0.461538 -0.000000    0.00045517  34 t-inv F
  0.230769 -0.461538  0.000000    0.00045517  34 t-inv F
  0.230769  0.000000 -0.461538    0.00045517  34 t-inv F
 -0.230769 -0.000000  0.461538    0.00045517  34 t-inv F
 -0.000000 -0.230769  0.461538    0.00045517  34 t-inv F
  0.000000  0.230769 -0.461538    0.00045517  34 t-inv F
  0.384615 -0.230769 -0.000000    0.00045517  35 t-inv F
  0.384615 -0.000000 -0.230769    0.00045517  35 t-inv F
 -0.384615  0.000000  0.230769    0.00045517  35 t-inv F
  0.000000 -0.384615  0.230769    0.00045517  35 t-inv F
 -0.000000  0.384615 -0.230769    0.00045517  35 t-inv F
 -0.230769  0.384615 -0.000000    0.00045517  35 t-inv F
  0.230769 -0.384615  0.000000    0.00045517  35 t-inv F
  0.230769  0.000000 -0.384615    0.00045517  35 t-inv F
 -0.230769 -0.000000  0.384615    0.00045517  35 t-inv F
 -0.000000 -0.230769  0.384615    0.00045517  35 t-inv F
  0.000000  0.230769 -0.384615    0.00045517  35 t-inv F
  0.307692 -0.230769 -0.000000    0.00045517  36 t-inv F
  0.307692 -0.000000 -0.230769    0.00045517  36 t-inv F
 -0.307692  0.000000  0.230769    0.00045517  36 t-inv F
  0.000000 -0.307692  0.230769    0.00045517  36 t-inv F
 -0.000000  0.307692 -0.230769    0.00045517  36 t-inv F
 -0.230769  0.307692 -0.000000    0.00045517  36 t-inv F
  0.230769 -0.307692  0.000000    0.00045517  36 t-inv F
  0.230769  0.000000 -0.307692    0.00045517  36 t-inv F
 -0.230769 -0.000000  0.307692    0.00045517  36 t-inv F
 -0.000000 -0.230769  0.307692    0.00045517  36 t-inv F
  0.000000  0.230769 -0.307692    0.00045517  36 t-inv F
  0.230769 -0.230769 -0.000000    0.00045517  37 t-inv F
  0.230769 -0.000000 -0.230769    0.00045517  37 t-inv F
 -0.230769  0.000000  0.230769    0.00045517  37 t-inv F
  0.000000 -0.230769  0.230769    0.00045517  37 t-inv F
 -0.000000  0.230769 -0.230769    0.00045517  37 t-inv F
 -0.307692 -0.307692 -0.000000    0.00045517  38 t-inv F
 -0.307692 -0.000000 -0.307692    0.00045517  38 t-inv F
  0.307692  0.000000  0.307692    0.00045517  38 t-inv F
  0.000000  0.307692  0.307692    0.00045517  38 t-inv F
 -0.000000 -0.307692 -0.307692    0.00045517  38 t-inv F
 -0.384615 -0.307692 -0.000000    0.00045517  39 t-inv F
 -0.384615 -0.000000 -0.307692    0.00045517  39 t-inv F
  0.384615  0.000000  0.307692    0.00045517  39 t-inv F
  0.000000  0.384615  0.307692    0.00045517  39 t-inv F
 -0.000000 -0.384615 -0.307692    0.00045517  39 t-inv F
 -0.307692 -0.384615 -0.000000    0.00045517  39 t-inv F
  0.307692  0.384615  0.000000    0.00045517  39 t-inv F
  0.307692  0.000000  0.384615    0.00045517  39 t-inv F
 -0.307692 -0.000000 -0.384615    0.00045517  39 t-inv F
 -0.000000 -0.307692 -0.384615    0.00045517  39 t-inv F
  0.000000  0.307692  0.384615    0.00045517  39 t-inv F
 -0.461538 -0.307692 -0.000000    0.00045517  40 t-inv F
 -0.461538 -0.000000 -0.307692    0.00045517  40 t-inv F
  0.461538  0.000000  0.307692    0.00045517  40 t-inv F
  0.000000  0.461538  0.307692    0.00045517  40 t-inv F
 -0.000000 -0.461538 -0.307692    0.00045517  40 t-inv F
 -0.307692 -0.461538 -0.000000    0.00045517  40 t-inv F
  0.307692  0.461538  0.000000    0.00045517  40 t-inv F
  0.307692  0.000000  0.461538    0.00045517  40 t-inv F
 -0.307692 -0.000000 -0.461538    0.00045517  40 t-inv F
 -0.000000 -0.307692 -0.461538    0.00045517  40 t-inv F
  0.000000  0.307692  0.461538    0.00045517  40 t-inv F
  0.461538 -0.307692 -0.000000    0.00045517  41 t-inv F
  0.461538 -0.000000 -0.307692    0.00045517  41 t-inv F
 -0.461538  0.000000  0.307692    0.00045517  41 t-inv F
  0.000000 -0.461538  0.307692    0.00045517  41 t-inv F
 -0.000000  0.461538 -0.307692    0.00045517  41 t-inv F
 -0.307692  0.461538 -0.000000    0.00045517  41 t-inv F
  0.307692 -0.461538  0.000000    0.00045517  41 t-inv F
  0.307692  0.000000 -0.461538    0.00045517  41 t-inv F
 -0.307692 -0.000000  0.461538    0.00045517  41 t-inv F
 -0.000000 -0.307692  0.461538    0.00045517  41 t-inv F
  0.000000  0.307692 -0.461538    0.00045517  41 t-inv F
  0.384615 -0.307692 -0.000000    0.00045517  42 t-inv F
  0.384615 -0.000000 -0.307692    0.00045517  42 t-inv F
 -0.384615  0.000000  0.307692    0.00045517  42 t-inv F
  0.000000 -0.384615  0.307692    0.00045517  42 t-inv F
 -0.000000  0.384615 -0.307692    0.00045517  42 t-inv F
 -0.307692  0.384615 -0.000000    0.00045517  42 t-inv F
  0.307692 -0.384615  0.000000    0.00045517  42 t-inv F
  0.307692  0.000000 -0.384615    0.00045517  42 t-inv F
 -0.307692 -0.000000  0.384615    0.00045517  42 t-inv F
 -0.000000 -0.307692  0.384615    0.00045517  42 t-inv F
  0.000000  0.307692 -0.384615    0.00045517  42 t-inv F
  0.307692 -0.307692 -0.000000    0.00045517  43 t-inv F
  0.307692 -0.000000 -0.307692    0.00045517  43 t-inv F
 -0.307692  0.000000  0.307692    0.00045517  43 t-inv F
  0.000000 -0.307692  0.307692    0.00045517  43 t-inv F
 -0.000000  0.307692 -0.307692    0.00045517  43 t-inv F
 -0.384615 -0.384615 -0.000000    0.00045517  44 t-inv F
 -0.384615 -0.000000 -0.384615    0.00045517  44 t-inv F
  0.384615  0.000000  0.384615    0.00045517  44 t-inv F
  0.000000  0.384615  0.384615    0.00045517  44 t-inv F
 -0.000000 -0.384615 -0.384615    0.00045517  44 t-inv F
 -0.461538 -0.384615 -0.000000    0.00045517  45 t-inv F
 -0.461538 -0.000000 -0.384615    0.00045517  45 t-inv F
  0.461538  0.000000  0.384615    0.00045517  45 t-inv F
  0.000000  0.461538  0.384615    0.00045517  45 t-inv F
 -0.000000 -0.461538 -0.384615    0.00045517  45 t-inv F
 -0.384615 -0.461538 -0.000000    0.00045517  45 t-inv F
  0.384615  0.461538  0.000000    0.00045517  45 t-inv F
  0.384615  0.000000  0.461538    0.00045517  45 t-inv F
 -0.384615 -0.000000 -0.461538    0.00045517  45 t-inv F
 -0.000000 -0.384615 -0.461538    0.00045517  45 t-inv F
  0.000000  0.384615  0.461538    0.00045517  45 t-inv F
  0.461538 -0.384615 -0.000000    0.00045517  46 t-inv F
  0.461538 -0.000000 -0.384615    0.00045517  46 t-inv F
 -0.461538  0.000000  0.384615    0.00045517  46 t-inv F
  0.000000 -0.461538  0.384615    0.00045517  46 t-inv F
 -0.000000  0.461538 -0.384615    0.00045517  46 t-inv F
 -0.384615  0.461538 -0.000000    0.00045517  46 t-inv F
  0.384615 -0.461538  0.000000    0.00045517  46 t-inv F
  0.384615  0.000000 -0.461538    0.00045517  46 t-inv F
 -0.384615 -0.000000  0.461538    0.00045517  46 t-inv F
 -0.000000 -0.384615  0.461538    0.00045517  46 t-inv F
  0.000000  0.384615 -0.461538    0.00045517  46 t-inv F
  0.384615 -0.384615 -0.000000    0.00045517  47 t-inv F
  0.384615 -0.000000 -0.384615    0.00045517  47 t-inv F
 -0.384615  0.000000  0.384615    0.00045517  47 t-inv F
  0.000000 -0.384615  0.384615    0.00045517  47 t-inv F
 -0.000000  0.384615 -0.384615    0.00045517  47 t-inv F
 -0.461538 -0.461538 -0.000000    0.00045517  48 t-inv F
 -0.461538 -0.000000 -0.461538    0.00045517  48 t-inv F
  0.461538  0.000000  0.461538    0.00045517  48 t-inv F
  0.000000  0.461538  0.461538    0.00045517  48 t-inv F
 -0.000000 -0.461538 -0.461538    0.00045517  48 t-inv F
  0.461538 -0.461538 -0.000000    0.00045517  49 t-inv F
  0.461538 -0.000000 -0.461538    0.00045517  49 t-inv F
 -0.461538  0.000000  0.461538    0.00045517  49 t-inv F
  0.000000 -0.461538  0.461538    0.00045517  49 t-inv F
 -0.000000  0.461538 -0.461538    0.00045517  49 t-inv F
 -0.076923 -0.076923 -0.076923    0.00045517  50 t-inv F
 -0.153846 -0.076923 -0.076923    0.00045517  51 t-inv F
  0.076923  0.153846  0.076923    0.00045517  51 t-inv F
 -0.076923 -0.153846 -0.076923    0.00045517  51 t-inv F
  0.076923  0.076923  0.153846    0.00045517  51 t-inv F
 -0.076923 -0.076923 -0.153846    0.00045517  51 t-inv F
 -0.230769 -0.076923 -0.076923    0.00045517  52 t-inv F
  0.076923  0.230769  0.076923    0.00045517  52 t-inv F
 -0.076923 -0.230769 -0.076923    0.00045517  52 t-inv F
  0.076923  0.076923  0.230769    0.00045517  52 t-inv F
 -0.076923 -0.076923 -0.230769    0.00045517  52 t-inv F
 -0.307692 -0.076923 -0.076923    0.00045517  53 t-inv F
  0.076923  0.307692  0.076923    0.00045517  53 t-inv F
 -0.076923 -0.307692 -0.076923    0.00045517  53 t-inv F
  0.076923  0.076923  0.307692    0.00045517  53 t-inv F
 -0.076923 -0.076923 -0.307692    0.00045517  53 t-inv F
 -0.384615 -0.076923 -0.076923    0.00045517  54 t-inv F
  0.076923  0.384615  0.076923    0.00045517  54 t-inv F
 -0.076923 -0.384615 -0.076923    0.00045517  54 t-inv F
  0.076923  0.076923  0.384615    0.00045517  54 t-inv F
 -0.076923 -0.076923 -0.384615    0.00045517  54 t-inv F
 -0.461538 -0.076923 -0.076923    0.00045517  55 t-inv F
  0.076923  0.461538  0.076923    0.00045517  55 t-inv F
 -0.076923 -0.461538 -0.076923    0.00045517  55 t-inv F
  0.076923  0.076923  0.461538    0.00045517  55 t-inv F
 -0.076923 -0.076923 -0.461538    0.00045517  55 t-inv F
  0.461538 -0.076923 -0.076923    0.00045517  56 t-inv F
  0.076923 -0.461538  0.076923    0.00045517  56 t-inv F
 -0.076923  0.461538 -0.076923    0.00045517  56 t-inv F
  0.076923  0.076923 -0.461538    0.00045517  56 t-inv F
 -0.076923 -0.076923  0.461538    0.00045517  56 t-inv F
  0.384615 -0.076923 -0.076923    0.00045517  57 t-inv F
  0.076923 -0.384615  0.076923    0.00045517  57 t-inv F
 -0.076923  0.384615 -0.076923    0.00045517  57 t-inv F
  0.076923  0.076923 -0.384615    0.00045517  57 t-inv F
 -0.076923 -0.076923  0.384615    0.00045517  57 t-inv F
  0.307692 -0.076923 -0.076923    0.00045517  58 t-inv F
  0.076923 -0.307692  0.076923    0.00045517  58 t-inv F
 -0.076923  0.307692 -0.076923    0.00045517  58 t-inv F
  0.076923  0.076923 -0.307692    0.00045517  58 t-inv F
 -0.076923 -0.076923  0.307692    0.00045517  58 t-inv F
  0.230769 -0.076923 -0.076923    0.00045517  59 t-inv F
  0.076923 -0.230769  0.076923    0.00045517  59 t-inv F
 -0.076923  0.230769 -0.076923    0.00045517  59 t-inv F
  0.076923  0.076923 -0.230769    0.00045517  59 t-inv F
 -0.076923 -0.076923  0.230769    0.00045517  59 t-inv F
  0.153846 -0.076923 -0.076923    0.00045517  60 t-inv F
  0.076923 -0.153846  0.076923    0.00045517  60 t-inv F
 -0.076923  0.153846 -0.076923    0.00045517  60 t-inv F
  0.076923  0.076923 -0.153846    0.00045517  60 t-inv F
 -0.076923 -0.076923  0.153846    0.00045517  60 t-inv F
  0.076923 -0.076923 -0.076923    0.00045517  61 t-inv F
  0.076923 -0.076923  0.076923    0.00045517  61 t-inv F
 -0.076923  0.076923 -0.076923    0.00045517  61 t-inv F
  0.076923  0.076923 -0.076923    0.00045517  61 t-inv F
 -0.076923 -0.076923  0.076923    0.00045517  61 t-inv F
 -0.153846 -0.153846 -0.076923    0.00045517  62 t-inv F
 -0.153846 -0.076923 -0.153846    0.00045517  62 t-inv F
  0.153846  0.076923  0.153846    0.00045517  62 t-inv F
  0.076923  0.153846  0.153846    0.00045517  62 t-inv F
 -0.076923 -0.153846 -0.153846    0.00045517  62 t-inv F
 -0.230769 -0.153846 -0.076923    0.00045517  63 t-inv F
 -0.230769 -0.076923 -0.153846    0.00045517  63 t-inv F
  0.230769  0.076923  0.153846    0.00045517  63 t-inv F
  0.076923  0.230769  0.153846    0.00045517  63 t-inv F
 -0.076923 -0.230769 -0.153846    0.00045517  63 t-inv F
 -0.153846 -0.230769 -0.076923    0.00045517  63 t-inv F
  0.153846  0.230769  0.076923    0.00045517  63 t-inv F
  0.153846  0.076923  0.230769    0.00045517  63 t-inv F
 -0.153846 -0.076923 -0.230769    0.00045517  63 t-inv F
 -0.076923 -0.153846 -0.230769    0.00045517  63 t-inv F
  0.076923  0.153846  0.230769    0.00045517  63 t-inv F
 -0.307692 -0.153846 -0.076923    0.00045517  64 t-inv F
 -0.307692 -0.076923 -0.153846    0.00045517  64 t-inv F
  0.307692  0.076923  0.153846    0.00045517  64 t-inv F
  0.076923  0.307692  0.153846    0.00045517  64 t-inv F
 -0.076923 -0.307692 -0.153846    0.00045517  64 t-inv F
 -0.153846 -0.307692 -0.076923    0.00045517  64 t-inv F
  0.153846  0.307692  0.076923    0.00045517  64 t-inv F
  0.153846  0.076923  0.307692    0.00045517  64 t-inv F
 -0.153846 -0.076923 -0.307692    0.00045517  64 t-inv F
 -0.076923 -0.153846 -0.307692    0.00045517  64 t-inv F
  0.076923  0.153846  0.307692    0.00045517  64 t-inv F
 -0.384615 -0.153846 -0.076923    0.00045517  65 t-inv F
 -0.384615 -0.076923 -0.153846    0.00045517  65 t-inv F
  0.384615  0.076923  0.153846    0.00045517  65 t-inv F
  0.076923  0.384615  0.153846    0.00045517  65 t-inv F
 -0.076923 -0.384615 -0.153846    0.00045517  65 t-inv F
 -0.153846 -0.384615 -0.076923    0.00045517  65 t-inv F
  0.153846  0.384615  0.076923    0.00045517  65 t-inv F
  0.153846  0.076923  0.384615    0.00045517  65 t-inv F
 -0.153846 -0.076923 -0.384615    0.00045517  65 t-inv F
 -0.076923 -0.153846 -0.384615    0.00045517  65 t-inv F
  0.076923  0.153846  0.384615    0.00045517  65 t-inv F
 -0.461538 -0.153846 -0.076923    0.00045517  66 t-inv F
 -0.461538 -0.076923 -0.153846    0.00045517  66 t-inv F
  0.461538  0.076923  0.153846    0.00045517  66 t-inv F
  0.076923  0.461538  0.153846    0.00045517  66 t-inv F
 -0.076923 -0.461538 -0.153846    0.00045517  66 t-inv F
[...]
 ALAT       =    10.4598624366
 COS(alpha) =     0.9101779394
  
  Lattice vectors:
  
 A1 = (  10.2222827077,  -2.2166773418,   0.0000000000)
 A2 = (  10.2222827077,   2.2166773418,   0.0000000000)
 A3 = (   9.7416015743,   0.0000000000,   3.8091890162)


Analysis of symmetry for initial positions (statically):
=====================================================================
 Subroutine PRICEL returns:
 Original cell was already a primitive cell.
 

 Routine SETGRP: Setting up the symmetry group for a 
 trigonal (rhombohedral) supercell.


 Subroutine GETGRP returns: Found 12 space group operations
 (whereof 12 operations were pure point group operations)
 out of a pool of 12 trial point group operations.


The static configuration has the point symmetry D_3d.


Analysis of symmetry for dynamics (positions and initial velocities):
=====================================================================
 Subroutine PRICEL returns:
 Original cell was already a primitive cell.
 

 Routine SETGRP: Setting up the symmetry group for a 
 trigonal (rhombohedral) supercell.


 Subroutine GETGRP returns: Found 12 space group operations
 (whereof 12 operations were pure point group operations)
 out of a pool of 12 trial point group operations.


The dynamic configuration has the point symmetry D_3d.


 Subroutine INISYM returns: Found 12 space group operations
 (whereof 12 operations are pure point group operations),
 and found     1 'primitive' translations



--------------------------------------------------------------------------------------------------------




 MACROSCOPIC STATIC DIELECTRIC TENSOR (including local field effects in DFT)
 ------------------------------------------------------
          31.655245     0.000000    -1.014529
           0.000000    39.694946     0.000000
          -1.014529     0.000000    39.566922
 ------------------------------------------------------


 PIEZOELECTRIC TENSOR  for field in x, y, z        (e  Angst)
          XX          YY          ZZ          XY          YZ          ZX
  --------------------------------------------------------------------------------
  x     0.00167    -0.00469     0.00403    -0.00000    -0.00000    -0.00418
  y     0.00292     0.02103    -0.00205    -0.00000    -0.00000    -0.00465
  z     0.00158    -0.00153     0.00449    -0.00000    -0.00000    -0.00242

 PIEZOELECTRIC TENSOR  for field in x, y, z        (C/m^2)
          XX          YY          ZZ          XY          YZ          ZX
  --------------------------------------------------------------------------------
  x     0.00000     0.00000     0.00000     0.00000     0.00000     0.00000
  y     0.00000     0.00000     0.00000     0.00000     0.00000     0.00000
  z     0.00000     0.00000     0.00000     0.00000     0.00000     0.00000

 BORN EFFECTIVE CHARGES (in e, cummulative output)
 -------------------------------------------------
 ion    1
    1     3.91281    -0.00000    -0.49319
    2     0.00075     7.81596    -0.00090
    3    -0.49279    -0.00000     7.75382
 ion    2
    1     3.91145    -0.00000    -0.49292
    2    -0.00075     7.81596     0.00090
    3    -0.49333    -0.00000     7.75372
 ion    3
    1    -5.57244    -0.00000     0.12435
    2    -0.00000    -6.55527    -0.00000
    3     0.12438    -0.00000    -6.53960
 ion    4
    1    -1.12550    -0.00000     0.43017
    2     0.00025    -4.53833    -0.00131
    3     0.43102    -0.00000    -4.48423
 ion    5
    1    -1.12632    -0.00000     0.43160
    2    -0.00025    -4.53833     0.00131
    3     0.43072    -0.00000    -4.48371

 INTERNAL STRAIN TENSOR FOR ION    1 for displacements in x,y,z  (eV/Angst):
          X           Y           Z          XY          YZ          ZX
  --------------------------------------------------------------------------------
  x    -2.49263    -2.48705    -2.75386     0.00000     0.00000     0.39891
  y     0.00000     0.00000     0.00000    -2.62583    -1.78766     0.00000
  z     0.41642    -1.77038     0.37806     0.00000     0.00000    -2.89080

 INTERNAL STRAIN TENSOR FOR ION    2 for displacements in x,y,z  (eV/Angst):
          X           Y           Z          XY          YZ          ZX
  --------------------------------------------------------------------------------
  x     2.49263     2.48705     2.75386     0.00000     0.00000    -0.39891
  y     0.00000     0.00000     0.00000     2.62583     1.78766     0.00000
  z    -0.41642     1.77038    -0.37806     0.00000     0.00000     2.89080

 INTERNAL STRAIN TENSOR FOR ION    3 for displacements in x,y,z  (eV/Angst):
          X           Y           Z          XY          YZ          ZX
  --------------------------------------------------------------------------------
  x     0.00000     0.00000     0.00000     0.00000     0.00000     0.00000
  y     0.00000     0.00000     0.00000     0.00000     0.00000     0.00000
  z     0.00000     0.00000     0.00000     0.00000     0.00000     0.00000

 INTERNAL STRAIN TENSOR FOR ION    4 for displacements in x,y,z  (eV/Angst):
          X           Y           Z          XY          YZ          ZX
  --------------------------------------------------------------------------------
  x    -8.73754    -4.85175    -5.55755     0.00000     0.00000     0.49302
  y     0.00000     0.00000     0.00000    -6.43072    -4.34918     0.00000
  z     0.69227    -4.14413     1.03572     0.00000     0.00000    -7.18247

 INTERNAL STRAIN TENSOR FOR ION    5 for displacements in x,y,z  (eV/Angst):
          X           Y           Z          XY          YZ          ZX
  --------------------------------------------------------------------------------
  x     8.73754     4.85175     5.55755     0.00000     0.00000    -0.49302
  y     0.00000     0.00000     0.00000     6.43072     4.34918     0.00000
  z    -0.69227     4.14413    -1.03572     0.00000     0.00000     7.18247


--------------------------------------------------------------------------------------------------------



 SECOND DERIVATIVES (NOT SYMMETRIZED)
 ------------------------------------
               1X          1Y          1Z          2X          2Y          2Z          3X          3Y          3Z          4X          4Y          4Z          5X          5Y          5Z 
  1X    -6.971778    0.000000   -0.540725    1.281519    0.000000    0.059954    1.377956    0.000000    0.147930   -0.131371    0.000000    0.055326    4.443675    0.000000    0.277515
  1Y     0.000000   -2.686766    0.000000    0.000000    0.806410    0.000000    0.000000    0.205676    0.000000    0.000000   -0.569805    0.000000    0.000000    2.244486    0.000000
  1Z    -0.540725    0.000000   -2.755000    0.059954    0.000000    0.813976    0.147930    0.000000    0.224343    0.055326    0.000000   -0.562824    0.277515    0.000000    2.279505
  2X     1.281519    0.000000    0.059954   -6.971778    0.000000   -0.540725    1.377956    0.000000    0.147930    4.443675    0.000000    0.277515   -0.131371    0.000000    0.055326
  2Y     0.000000    0.806410    0.000000    0.000000   -2.686766    0.000000    0.000000    0.205676    0.000000    0.000000    2.244486    0.000000    0.000000   -0.569805    0.000000
  2Z     0.059954    0.000000    0.813976   -0.540725    0.000000   -2.755000    0.147930    0.000000    0.224343    0.277515    0.000000    2.279505    0.055326    0.000000   -0.562824
  3X     1.377869    0.000000    0.148035    1.377869    0.000000    0.148035   -4.188198    0.000000   -0.182341    0.716230    0.000000   -0.056865    0.716230    0.000000   -0.056865
  3Y     0.000000    0.204754    0.000000    0.000000    0.204754    0.000000    0.000000   -2.743227    0.000000    0.000000    1.166859    0.000000    0.000000    1.166859    0.000000
  3Z     0.148035    0.000000    0.223435    0.148035    0.000000    0.223435   -0.182341    0.000000   -2.766237   -0.056865    0.000000    1.159684   -0.056865    0.000000    1.159684
  4X    -0.129356    0.000000    0.055951    4.443175    0.000000    0.277403    0.716729    0.000000   -0.056790   -5.314284    0.000000   -0.224207    0.283736    0.000000   -0.052356
  4Y     0.000000   -0.572740    0.000000    0.000000    2.244880    0.000000    0.000000    1.166763    0.000000    0.000000   -3.537538    0.000000    0.000000    0.698636    0.000000
  4Z     0.055951    0.000000   -0.565680    0.277403    0.000000    2.279885   -0.056790    0.000000    1.159597   -0.224207    0.000000   -3.565831   -0.052356    0.000000    0.692029
  5X     4.443175    0.000000    0.277403   -0.129356    0.000000    0.055951    0.716729    0.000000   -0.056790    0.283736    0.000000   -0.052356   -5.314284    0.000000   -0.224207
  5Y     0.000000    2.244880    0.000000    0.000000   -0.572740    0.000000    0.000000    1.166763    0.000000    0.000000    0.698636    0.000000    0.000000   -3.537538    0.000000
  5Z     0.277403    0.000000    2.279885    0.055951    0.000000   -0.565680   -0.056790    0.000000    1.159597   -0.052356    0.000000    0.692029   -0.224207    0.000000   -3.565831


 Eigenvectors and eigenvalues of the dynamical matrix
 ----------------------------------------------------


   1 f  =    4.142289 THz    26.026771 2PiTHz  138.171893 cm-1    17.131137 meV
             X         Y         Z           dx          dy          dz
     18.117788  0.000000  2.286282    -0.477343   -0.000000   -0.060236  
     12.068379  0.000000  1.522907     0.477343    0.000000    0.060236  
      0.000000  0.000000  0.000000     0.000000   -0.000000    0.000000  
     23.832407  0.000000  3.007409    -0.514107   -0.000000   -0.064875  
      6.353760  0.000000  0.801780     0.514107    0.000000    0.064875  

   2 f  =    3.862555 THz    24.269147 2PiTHz  128.840951 cm-1    15.974248 meV
             X         Y         Z           dx          dy          dz
     18.117788  0.000000  2.286282     0.444854    0.000000    0.056136  
     12.068379  0.000000  1.522907     0.444854   -0.000000    0.056136  
      0.000000  0.000000  0.000000    -0.056874    0.000000   -0.007177  
     23.832407  0.000000  3.007409    -0.540972   -0.000000   -0.068265  
      6.353760  0.000000  0.801780    -0.540972   -0.000000   -0.068265  

   3 f  =    3.281870 THz    20.620596 2PiTHz  109.471390 cm-1    13.572727 meV
             X         Y         Z           dx          dy          dz
     18.117788  0.000000  2.286282     0.047210    0.000024   -0.374121  
     12.068379  0.000000  1.522907    -0.047210   -0.000024    0.374121  
      0.000000  0.000000  0.000000    -0.000000    0.000000   -0.000000  
     23.832407  0.000000  3.007409     0.074889    0.000037   -0.593461  
      6.353760  0.000000  0.801780    -0.074889   -0.000037    0.593461  

   4 f  =    3.281870 THz    20.620596 2PiTHz  109.471390 cm-1    13.572727 meV
             X         Y         Z           dx          dy          dz
     18.117788  0.000000  2.286282     0.000003   -0.377088   -0.000023  
     12.068379  0.000000  1.522907    -0.000003    0.377088    0.000023  
      0.000000  0.000000  0.000000    -0.000000   -0.000000    0.000000  
     23.832407  0.000000  3.007409     0.000005   -0.598168   -0.000037  
      6.353760  0.000000  0.801780    -0.000005    0.598168    0.000037  

   5 f  =    3.094265 THz    19.441842 2PiTHz  103.213574 cm-1    12.796857 meV
             X         Y         Z           dx          dy          dz
     18.117788  0.000000  2.286282    -0.193275   -0.000000   -0.024389  
     12.068379  0.000000  1.522907    -0.193275    0.000000   -0.024389  
      0.000000  0.000000  0.000000     0.907855   -0.000000    0.114562  
     23.832407  0.000000  3.007409    -0.206657   -0.000000   -0.026078  
      6.353760  0.000000  0.801780    -0.206657    0.000000   -0.026078  

   6 f  =    2.979410 THz    18.720188 2PiTHz   99.382433 cm-1    12.321856 meV
             X         Y         Z           dx          dy          dz
     18.117788  0.000000  2.286282     0.021177   -0.000006   -0.167820  
     12.068379  0.000000  1.522907     0.021177   -0.000006   -0.167820  
      0.000000  0.000000  0.000000     0.077858   -0.000023   -0.616994  
     23.832407  0.000000  3.007409    -0.066013    0.000020    0.523123  
      6.353760  0.000000  0.801780    -0.066013    0.000020    0.523123  

   7 f  =    2.979410 THz    18.720188 2PiTHz   99.382433 cm-1    12.321856 meV
             X         Y         Z           dx          dy          dz
     18.117788  0.000000  2.286282     0.000001    0.169151   -0.000006  
     12.068379  0.000000  1.522907     0.000001    0.169151   -0.000006  
      0.000000  0.000000  0.000000     0.000003    0.621887   -0.000023  
     23.832407  0.000000  3.007409    -0.000002   -0.527272    0.000019  
      6.353760  0.000000  0.801780    -0.000002   -0.527272    0.000019  

   8 f  =    2.003490 THz    12.588296 2PiTHz   66.829218 cm-1     8.285770 meV
             X         Y         Z           dx          dy          dz
     18.117788  0.000000  2.286282     0.057461    0.000026   -0.455355  
     12.068379  0.000000  1.522907     0.057461    0.000026   -0.455355  
      0.000000  0.000000  0.000000    -0.084330   -0.000039    0.668282  
     23.832407  0.000000  3.007409    -0.031298   -0.000014    0.248020  
      6.353760  0.000000  0.801780    -0.031298   -0.000014    0.248020  

   9 f  =    2.003490 THz    12.588296 2PiTHz   66.829218 cm-1     8.285770 meV
             X         Y         Z           dx          dy          dz
     18.117788  0.000000  2.286282    -0.000003    0.458966    0.000026  
     12.068379  0.000000  1.522907    -0.000003    0.458966    0.000026  
      0.000000  0.000000  0.000000     0.000005   -0.673582   -0.000038  
     23.832407  0.000000  3.007409     0.000002   -0.249987   -0.000014  
      6.353760  0.000000  0.801780     0.000002   -0.249987   -0.000014  

  10 f  =    1.829210 THz    11.493263 2PiTHz   61.015862 cm-1     7.565005 meV
             X         Y         Z           dx          dy          dz
     18.117788  0.000000  2.286282    -0.514107   -0.000000   -0.064875  
     12.068379  0.000000  1.522907     0.514107   -0.000000    0.064875  
      0.000000  0.000000  0.000000     0.000000    0.000000   -0.000000  
     23.832407  0.000000  3.007409     0.477343    0.000000    0.060236  
      6.353760  0.000000  0.801780    -0.477343    0.000000   -0.060236  

  11 f  =    1.195145 THz     7.509319 2PiTHz   39.865751 cm-1     4.942725 meV
             X         Y         Z           dx          dy          dz
     18.117788  0.000000  2.286282    -0.074889   -0.000059    0.593461  
     12.068379  0.000000  1.522907     0.074889    0.000059   -0.593461  
      0.000000  0.000000  0.000000    -0.000000   -0.000000    0.000000  
     23.832407  0.000000  3.007409     0.047210    0.000037   -0.374121  
      6.353760  0.000000  0.801780    -0.047210   -0.000037    0.374121  

  12 f  =    1.195145 THz     7.509319 2PiTHz   39.865751 cm-1     4.942725 meV
             X         Y         Z           dx          dy          dz
     18.117788  0.000000  2.286282    -0.000007    0.598168    0.000059  
     12.068379  0.000000  1.522907     0.000007   -0.598168   -0.000059  
      0.000000  0.000000  0.000000    -0.000000   -0.000000   -0.000000  
     23.832407  0.000000  3.007409     0.000005   -0.377088   -0.000037  
      6.353760  0.000000  0.801780    -0.000005    0.377088    0.000037  

  13 f/i=    0.000371 THz     0.002333 2PiTHz    0.012385 cm-1     0.001536 meV
             X         Y         Z           dx          dy          dz
     18.117788  0.000000  2.286282     0.506865    0.000000    0.063961  
     12.068379  0.000000  1.522907     0.506865    0.000000    0.063961  
      0.000000  0.000000  0.000000     0.396093    0.000000    0.049983  
     23.832407  0.000000  3.007409     0.395987    0.000000    0.049970  
      6.353760  0.000000  0.801780     0.395987    0.000000    0.049970  

  14 f/i=    0.000998 THz     0.006272 2PiTHz    0.033299 cm-1     0.004129 meV
             X         Y         Z           dx          dy          dz
     18.117788  0.000000  2.286282     0.003437   -0.509886   -0.027240  
     12.068379  0.000000  1.522907     0.003437   -0.509886   -0.027240  
      0.000000  0.000000  0.000000     0.002689   -0.398851   -0.021308  
     23.832407  0.000000  3.007409     0.002688   -0.398785   -0.021304  
      6.353760  0.000000  0.801780     0.002688   -0.398785   -0.021304  

  15 f/i=    0.000998 THz     0.006272 2PiTHz    0.033299 cm-1     0.004129 meV
             X         Y         Z           dx          dy          dz
     18.117788  0.000000  2.286282    -0.063836   -0.027456    0.505874  
     12.068379  0.000000  1.522907    -0.063836   -0.027456    0.505874  
      0.000000  0.000000  0.000000    -0.049935   -0.021477    0.395713  
     23.832407  0.000000  3.007409    -0.049927   -0.021473    0.395647  
      6.353760  0.000000  0.801780    -0.049927   -0.021473    0.395647  



--------------------------------------------------------------------------------------------------------




 MACROSCOPIC STATIC DIELECTRIC TENSOR IONIC CONTRIBUTION
 ------------------------------------------------------
          10.500763     0.000001    -8.432342
           0.000001    77.283221     0.000000
          -8.432342     0.000000    76.220056
 ------------------------------------------------------


 ELASTIC MODULI IONIC CONTR (kBar)
 Direction    XX          YY          ZZ          XY          YZ          ZX
 --------------------------------------------------------------------------------
 XX        -345.9505   -150.6234   -200.6306     -0.0000     -0.0000     47.2932
 YY        -150.6234   -168.1261    -75.8307      0.0000      0.0000   -138.9374
 ZZ        -200.6306    -75.8307   -122.9378     -0.0000     -0.0000     53.4561
 XY          -0.0000      0.0000     -0.0000   -212.3356   -143.3828      0.0000
 YZ          -0.0000      0.0000     -0.0000   -143.3828    -96.8227      0.0000
 ZX          47.2932   -138.9374     53.4561      0.0000      0.0000   -267.0946
 --------------------------------------------------------------------------------


 PIEZOELECTRIC TENSOR IONIC CONTR  for field in x, y, z        (C/m^2)
          XX          YY          ZZ          XY          YZ          ZX
  --------------------------------------------------------------------------------
  x    -0.00009     0.00012    -0.00010     0.00000     0.00000     0.00030
  y    -0.00002     0.00022    -0.00007     0.00000     0.00000     0.00040
  z    -0.00003     0.00005    -0.00004    -0.00000    -0.00000     0.00013


--------------------------------------------------------------------------------------------------------


     LOOP+:  cpu time25013.7314: real time25191.0166
    4ORBIT:  cpu time    0.0000: real time    0.0000
 BZINTS: Fermi energy:  5.545676; 28.000000 electrons
         Band energy:   2.041438;  BLOECHL correction:  0.000000

 total amount of memory used by VASP MPI-rank0   494688. kBytes
=======================================================================

   base      :      30000. kBytes
   nonl-proj :     279142. kBytes
   fftplans  :      44532. kBytes
   grid      :      75866. kBytes
   one-center:         40. kBytes
   wavefun   :      65108. kBytes

  
  
 General timing and accounting informations for this job:
 ========================================================
  
                  Total CPU time used (sec):    25024.576
                            User time (sec):    23237.320
                          System time (sec):     1787.257
                         Elapsed time (sec):    25201.911
  
                   Maximum memory used (kb):     1916912.
                   Average memory used (kb):           0.
  
                          Minor page faults:     56917796
                          Major page faults:            0
                 Voluntary context switches:        12773
