<?xml version="1.0" encoding="ISO-8859-1"?>
<modeling>
 <generator>
  <i name="program" type="string">vasp </i>
  <i name="version" type="string">5.4.4.18Apr17-6-g9f103f2a35  </i>
  <i name="subversion" type="string">(build Mar 20 2018 18:07:30) complex            parallel </i>
  <i name="platform" type="string">LinuxGNU </i>
  <i name="date" type="string">2020 07 05 </i>
  <i name="time" type="string">10:33:26 </i>
 </generator>
 <incar>
  <i type="string" name="SYSTEM"> Bite</i>
  <i type="int" name="ISTART">     0</i>
  <i type="string" name="PREC">accurate</i>
  <i type="int" name="ICHARG">     2</i>
  <i type="int" name="IBRION">     8</i>
  <i name="EDIFF">      0.00000010</i>
  <i name="EDIFFG">     -0.00100000</i>
  <i type="int" name="NSW">     1</i>
  <i name="ENCUT">    600.00000000</i>
  <i type="int" name="ISMEAR">    -5</i>
  <i type="logical" name="LWAVE"> F  </i>
  <i type="logical" name="LCHARG"> T  </i>
  <v type="int" name="KPOINT_BSE">    -1     0     0     0</v>
  <i type="logical" name="LEPSILON"> T  </i>
  <i type="logical" name="LRPA"> F  </i>
 </incar>
 <structure name="primitive_cell" >
  <crystal>
   <varray name="basis" >
    <v>      10.22228271      -2.21667734       0.00000000 </v>
    <v>      10.22228271       2.21667734       0.00000000 </v>
    <v>       9.74160157       0.00000000       3.80918902 </v>
   </varray>
   <i name="volume">    172.62865577 </i>
   <varray name="rec_basis" >
    <v>       0.04891275      -0.22556282      -0.12508924 </v>
    <v>       0.04891275       0.22556282      -0.12508924 </v>
    <v>      -0.00000000       0.00000000       0.26252307 </v>
   </varray>
  </crystal>
  <varray name="positions" >
   <v>      -0.39979833      -0.39979833      -0.39979833 </v>
   <v>       0.21048582       0.21048582       0.21048582 </v>
   <v>       0.00000000       0.00000000       0.00000000 </v>
   <v>       0.39979833       0.39979833       0.39979833 </v>
   <v>      -0.21048582      -0.21048582      -0.21048582 </v>
  </varray>
 </structure>
 <varray name="primitive_index" >
  <v type="int" >        1 </v>
  <v type="int" >        5 </v>
  <v type="int" >        3 </v>
  <v type="int" >        2 </v>
  <v type="int" >        4 </v>
 </varray>
 <kpoints>
  <generation param="Gamma">
   <v type="int" name="divisions">      13       13       13 </v>
   <v name="usershift">      0.00000000       0.00000000       0.00000000 </v>
   <v name="genvec1">      0.07692308       0.00000000       0.00000000 </v>
   <v name="genvec2">      0.00000000       0.07692308       0.00000000 </v>
   <v name="genvec3">      0.00000000       0.00000000       0.07692308 </v>
   <v name="shift">      0.00000000       0.00000000       0.00000000 </v>
  </generation>
  <varray name="kpointlist" >
   <v>       0.00000000       0.00000000       0.00000000 </v>
   <v>       0.07692308       0.00000000       0.00000000 </v>
   <v>       0.15384615       0.00000000       0.00000000 </v>
   <v>       0.23076923       0.00000000       0.00000000 </v>
   <v>       0.30769231       0.00000000       0.00000000 </v>
   <v>       0.38461538       0.00000000       0.00000000 </v>
   <v>       0.46153846       0.00000000       0.00000000 </v>
   <v>       0.07692308       0.07692308       0.00000000 </v>
   <v>       0.15384615       0.07692308       0.00000000 </v>
   <v>       0.23076923       0.07692308       0.00000000 </v>
   <v>       0.30769231       0.07692308       0.00000000 </v>
   <v>       0.38461538       0.07692308       0.00000000 </v>
   <v>       0.46153846       0.07692308       0.00000000 </v>
   <v>      -0.46153846       0.07692308       0.00000000 </v>
   <v>      -0.38461538       0.07692308       0.00000000 </v>
   <v>      -0.30769231       0.07692308       0.00000000 </v>
   <v>      -0.23076923       0.07692308       0.00000000 </v>
   <v>      -0.15384615       0.07692308       0.00000000 </v>
   <v>      -0.07692308       0.07692308       0.00000000 </v>
   <v>       0.15384615       0.15384615       0.00000000 </v>
   <v>       0.23076923       0.15384615       0.00000000 </v>
   <v>       0.30769231       0.15384615       0.00000000 </v>
   <v>       0.38461538       0.15384615       0.00000000 </v>
   <v>       0.46153846       0.15384615       0.00000000 </v>
   <v>      -0.46153846       0.15384615       0.00000000 </v>
   <v>      -0.38461538       0.15384615       0.00000000 </v>
   <v>      -0.30769231       0.15384615       0.00000000 </v>
   <v>      -0.23076923       0.15384615       0.00000000 </v>
   <v>      -0.15384615       0.15384615       0.00000000 </v>
   <v>       0.23076923       0.23076923       0.00000000 </v>
   <v>       0.30769231       0.23076923       0.00000000 </v>
   <v>       0.38461538       0.23076923       0.00000000 </v>
   <v>       0.46153846       0.23076923       0.00000000 </v>
   <v>      -0.46153846       0.23076923       0.00000000 </v>
   <v>      -0.38461538       0.23076923       0.00000000 </v>
   <v>      -0.30769231       0.23076923       0.00000000 </v>
   <v>      -0.23076923       0.23076923       0.00000000 </v>
   <v>       0.30769231       0.30769231       0.00000000 </v>
   <v>       0.38461538       0.30769231       0.00000000 </v>
   <v>       0.46153846       0.30769231       0.00000000 </v>
   <v>      -0.46153846       0.30769231       0.00000000 </v>
   <v>      -0.38461538       0.30769231       0.00000000 </v>
   <v>      -0.30769231       0.30769231       0.00000000 </v>
   <v>       0.38461538       0.38461538       0.00000000 </v>
   <v>       0.46153846       0.38461538       0.00000000 </v>
   <v>      -0.46153846       0.38461538       0.00000000 </v>
   <v>      -0.38461538       0.38461538       0.00000000 </v>
   <v>       0.46153846       0.46153846       0.00000000 </v>
   <v>      -0.46153846       0.46153846       0.00000000 </v>
   <v>       0.07692308       0.07692308       0.07692308 </v>
   <v>       0.15384615       0.07692308       0.07692308 </v>
   <v>       0.23076923       0.07692308       0.07692308 </v>
   <v>       0.30769231       0.07692308       0.07692308 </v>
   <v>       0.38461538       0.07692308       0.07692308 </v>
   <v>       0.46153846       0.07692308       0.07692308 </v>
   <v>      -0.46153846       0.07692308       0.07692308 </v>
   <v>      -0.38461538       0.07692308       0.07692308 </v>
   <v>      -0.30769231       0.07692308       0.07692308 </v>
   <v>      -0.23076923       0.07692308       0.07692308 </v>
   <v>      -0.15384615       0.07692308       0.07692308 </v>
   <v>      -0.07692308       0.07692308       0.07692308 </v>
   <v>       0.15384615       0.15384615       0.07692308 </v>
   <v>       0.23076923       0.15384615       0.07692308 </v>
   <v>       0.30769231       0.15384615       0.07692308 </v>
   <v>       0.38461538       0.15384615       0.07692308 </v>
   <v>       0.46153846       0.15384615       0.07692308 </v>
   <v>      -0.46153846       0.15384615       0.07692308 </v>
   <v>      -0.38461538       0.15384615       0.07692308 </v>
   <v>      -0.30769231       0.15384615       0.07692308 </v>
   <v>      -0.23076923       0.15384615       0.07692308 </v>
   <v>      -0.15384615       0.15384615       0.07692308 </v>
   <v>      -0.07692308       0.15384615       0.07692308 </v>
   <v>       0.23076923       0.23076923       0.07692308 </v>
   <v>       0.30769231       0.23076923       0.07692308 </v>
   <v>       0.38461538       0.23076923       0.07692308 </v>
   <v>       0.46153846       0.23076923       0.07692308 </v>
   <v>      -0.46153846       0.23076923       0.07692308 </v>
   <v>      -0.38461538       0.23076923       0.07692308 </v>
   <v>      -0.30769231       0.23076923       0.07692308 </v>
   <v>      -0.23076923       0.23076923       0.07692308 </v>
   <v>      -0.15384615       0.23076923       0.07692308 </v>
   <v>      -0.07692308       0.23076923       0.07692308 </v>
   <v>       0.30769231       0.30769231       0.07692308 </v>
   <v>       0.38461538       0.30769231       0.07692308 </v>
   <v>       0.46153846       0.30769231       0.07692308 </v>
   <v>      -0.46153846       0.30769231       0.07692308 </v>
   <v>      -0.38461538       0.30769231       0.07692308 </v>
   <v>      -0.30769231       0.30769231       0.07692308 </v>
   <v>      -0.23076923       0.30769231       0.07692308 </v>
   <v>      -0.15384615       0.30769231       0.07692308 </v>
   <v>      -0.07692308       0.30769231       0.07692308 </v>
   <v>       0.38461538       0.38461538       0.07692308 </v>
   <v>       0.46153846       0.38461538       0.07692308 </v>
   <v>      -0.46153846       0.38461538       0.07692308 </v>
   <v>      -0.38461538       0.38461538       0.07692308 </v>
   <v>      -0.30769231       0.38461538       0.07692308 </v>
   <v>      -0.23076923       0.38461538       0.07692308 </v>
   <v>      -0.15384615       0.38461538       0.07692308 </v>
   <v>      -0.07692308       0.38461538       0.07692308 </v>
   <v>       0.46153846       0.46153846       0.07692308 </v>
   <v>      -0.46153846       0.46153846       0.07692308 </v>
   <v>      -0.38461538       0.46153846       0.07692308 </v>
   <v>      -0.30769231       0.46153846       0.07692308 </v>
   <v>      -0.23076923       0.46153846       0.07692308 </v>
   <v>      -0.15384615       0.46153846       0.07692308 </v>
   <v>      -0.07692308       0.46153846       0.07692308 </v>
   <v>      -0.46153846      -0.46153846       0.07692308 </v>
   <v>      -0.38461538      -0.46153846       0.07692308 </v>
   <v>      -0.30769231      -0.46153846       0.07692308 </v>
   <v>      -0.23076923      -0.46153846       0.07692308 </v>
   <v>      -0.15384615      -0.46153846       0.07692308 </v>
   <v>      -0.38461538      -0.38461538       0.07692308 </v>
   <v>      -0.30769231      -0.38461538       0.07692308 </v>
   <v>      -0.23076923      -0.38461538       0.07692308 </v>
   <v>      -0.15384615      -0.38461538       0.07692308 </v>
   <v>      -0.30769231      -0.30769231       0.07692308 </v>
   <v>      -0.23076923      -0.30769231       0.07692308 </v>
   <v>      -0.15384615      -0.30769231       0.07692308 </v>
   <v>      -0.23076923      -0.23076923       0.07692308 </v>
   <v>      -0.15384615      -0.23076923       0.07692308 </v>
   <v>      -0.15384615      -0.15384615       0.07692308 </v>
   <v>       0.15384615       0.15384615       0.15384615 </v>
   <v>       0.23076923       0.15384615       0.15384615 </v>
   <v>       0.30769231       0.15384615       0.15384615 </v>
   <v>       0.38461538       0.15384615       0.15384615 </v>
   <v>       0.46153846       0.15384615       0.15384615 </v>
   <v>      -0.46153846       0.15384615       0.15384615 </v>
   <v>      -0.38461538       0.15384615       0.15384615 </v>
   <v>      -0.30769231       0.15384615       0.15384615 </v>
   <v>      -0.23076923       0.15384615       0.15384615 </v>
   <v>      -0.15384615       0.15384615       0.15384615 </v>
   <v>       0.23076923       0.23076923       0.15384615 </v>
   <v>       0.30769231       0.23076923       0.15384615 </v>
   <v>       0.38461538       0.23076923       0.15384615 </v>
   <v>       0.46153846       0.23076923       0.15384615 </v>
   <v>      -0.46153846       0.23076923       0.15384615 </v>
   <v>      -0.38461538       0.23076923       0.15384615 </v>
   <v>      -0.30769231       0.23076923       0.15384615 </v>
   <v>      -0.23076923       0.23076923       0.15384615 </v>
   <v>      -0.15384615       0.23076923       0.15384615 </v>
   <v>       0.30769231       0.30769231       0.15384615 </v>
   <v>       0.38461538       0.30769231       0.15384615 </v>
   <v>       0.46153846       0.30769231       0.15384615 </v>
   <v>      -0.46153846       0.30769231       0.15384615 </v>
   <v>      -0.38461538       0.30769231       0.15384615 </v>
   <v>      -0.30769231       0.30769231       0.15384615 </v>
   <v>      -0.23076923       0.30769231       0.15384615 </v>
   <v>      -0.15384615       0.30769231       0.15384615 </v>
   <v>       0.38461538       0.38461538       0.15384615 </v>
   <v>       0.46153846       0.38461538       0.15384615 </v>
   <v>      -0.46153846       0.38461538       0.15384615 </v>
   <v>      -0.38461538       0.38461538       0.15384615 </v>
   <v>      -0.30769231       0.38461538       0.15384615 </v>
   <v>      -0.23076923       0.38461538       0.15384615 </v>
   <v>      -0.15384615       0.38461538       0.15384615 </v>
   <v>       0.46153846       0.46153846       0.15384615 </v>
   <v>      -0.46153846       0.46153846       0.15384615 </v>
   <v>      -0.38461538       0.46153846       0.15384615 </v>
   <v>      -0.30769231       0.46153846       0.15384615 </v>
   <v>      -0.23076923       0.46153846       0.15384615 </v>
   <v>      -0.15384615       0.46153846       0.15384615 </v>
   <v>      -0.46153846      -0.46153846       0.15384615 </v>
   <v>      -0.38461538      -0.46153846       0.15384615 </v>
   <v>      -0.30769231      -0.46153846       0.15384615 </v>
   <v>      -0.23076923      -0.46153846       0.15384615 </v>
   <v>      -0.38461538      -0.38461538       0.15384615 </v>
   <v>      -0.30769231      -0.38461538       0.15384615 </v>
   <v>      -0.23076923      -0.38461538       0.15384615 </v>
   <v>      -0.30769231      -0.30769231       0.15384615 </v>
   <v>      -0.23076923      -0.30769231       0.15384615 </v>
   <v>      -0.23076923      -0.23076923       0.15384615 </v>
   <v>       0.23076923       0.23076923       0.23076923 </v>
   <v>       0.30769231       0.23076923       0.23076923 </v>
   <v>       0.38461538       0.23076923       0.23076923 </v>
   <v>       0.46153846       0.23076923       0.23076923 </v>
   <v>      -0.46153846       0.23076923       0.23076923 </v>
   <v>      -0.38461538       0.23076923       0.23076923 </v>
   <v>      -0.30769231       0.23076923       0.23076923 </v>
   <v>      -0.23076923       0.23076923       0.23076923 </v>
   <v>       0.30769231       0.30769231       0.23076923 </v>
   <v>       0.38461538       0.30769231       0.23076923 </v>
   <v>       0.46153846       0.30769231       0.23076923 </v>
   <v>      -0.46153846       0.30769231       0.23076923 </v>
   <v>      -0.38461538       0.30769231       0.23076923 </v>
   <v>      -0.30769231       0.30769231       0.23076923 </v>
   <v>      -0.23076923       0.30769231       0.23076923 </v>
   <v>       0.38461538       0.38461538       0.23076923 </v>
   <v>       0.46153846       0.38461538       0.23076923 </v>
   <v>      -0.46153846       0.38461538       0.23076923 </v>
   <v>      -0.38461538       0.38461538       0.23076923 </v>
   <v>      -0.30769231       0.38461538       0.23076923 </v>
   <v>      -0.23076923       0.38461538       0.23076923 </v>
   <v>       0.46153846       0.46153846       0.23076923 </v>
   <v>      -0.46153846       0.46153846       0.23076923 </v>
   <v>      -0.38461538       0.46153846       0.23076923 </v>
   <v>      -0.30769231       0.46153846       0.23076923 </v>
   <v>      -0.23076923       0.46153846       0.23076923 </v>
   <v>      -0.46153846      -0.46153846       0.23076923 </v>
   <v>      -0.38461538      -0.46153846       0.23076923 </v>
   <v>      -0.30769231      -0.46153846       0.23076923 </v>
   <v>      -0.38461538      -0.38461538       0.23076923 </v>
   <v>      -0.30769231      -0.38461538       0.23076923 </v>
   <v>      -0.30769231      -0.30769231       0.23076923 </v>
   <v>       0.30769231       0.30769231       0.30769231 </v>
   <v>       0.38461538       0.30769231       0.30769231 </v>
   <v>       0.46153846       0.30769231       0.30769231 </v>
   <v>      -0.46153846       0.30769231       0.30769231 </v>
   <v>      -0.38461538       0.30769231       0.30769231 </v>
   <v>      -0.30769231       0.30769231       0.30769231 </v>
   <v>       0.38461538       0.38461538       0.30769231 </v>
   <v>       0.46153846       0.38461538       0.30769231 </v>
   <v>      -0.46153846       0.38461538       0.30769231 </v>
   <v>      -0.38461538       0.38461538       0.30769231 </v>
   <v>      -0.30769231       0.38461538       0.30769231 </v>
   <v>       0.46153846       0.46153846       0.30769231 </v>
   <v>      -0.46153846       0.46153846       0.30769231 </v>
   <v>      -0.38461538       0.46153846       0.30769231 </v>
   <v>      -0.30769231       0.46153846       0.30769231 </v>
   <v>      -0.46153846      -0.46153846       0.30769231 </v>
   <v>      -0.38461538      -0.46153846       0.30769231 </v>
   <v>      -0.38461538      -0.38461538       0.30769231 </v>
   <v>       0.38461538       0.38461538       0.38461538 </v>
   <v>       0.46153846       0.38461538       0.38461538 </v>
   <v>      -0.46153846       0.38461538       0.38461538 </v>
   <v>      -0.38461538       0.38461538       0.38461538 </v>
   <v>       0.46153846       0.46153846       0.38461538 </v>
   <v>      -0.46153846       0.46153846       0.38461538 </v>
   <v>      -0.38461538       0.46153846       0.38461538 </v>
   <v>      -0.46153846      -0.46153846       0.38461538 </v>
   <v>       0.46153846       0.46153846       0.46153846 </v>
   <v>      -0.46153846       0.46153846       0.46153846 </v>
  </varray>
  <varray name="weights" >
   <v>       0.00045517 </v>
   <v>       0.00273100 </v>
   <v>       0.00273100 </v>
   <v>       0.00273100 </v>
   <v>       0.00273100 </v>
   <v>       0.00273100 </v>
   <v>       0.00273100 </v>
   <v>       0.00273100 </v>
   <v>       0.00546199 </v>
   <v>       0.00546199 </v>
   <v>       0.00546199 </v>
   <v>       0.00546199 </v>
   <v>       0.00546199 </v>
   <v>       0.00546199 </v>
   <v>       0.00546199 </v>
   <v>       0.00546199 </v>
   <v>       0.00546199 </v>
   <v>       0.00546199 </v>
   <v>       0.00273100 </v>
   <v>       0.00273100 </v>
   <v>       0.00546199 </v>
   <v>       0.00546199 </v>
   <v>       0.00546199 </v>
   <v>       0.00546199 </v>
   <v>       0.00546199 </v>
   <v>       0.00546199 </v>
   <v>       0.00546199 </v>
   <v>       0.00546199 </v>
   <v>       0.00273100 </v>
   <v>       0.00273100 </v>
   <v>       0.00546199 </v>
   <v>       0.00546199 </v>
   <v>       0.00546199 </v>
   <v>       0.00546199 </v>
   <v>       0.00546199 </v>
   <v>       0.00546199 </v>
   <v>       0.00273100 </v>
   <v>       0.00273100 </v>
   <v>       0.00546199 </v>
   <v>       0.00546199 </v>
   <v>       0.00546199 </v>
   <v>       0.00546199 </v>
   <v>       0.00273100 </v>
   <v>       0.00273100 </v>
   <v>       0.00546199 </v>
   <v>       0.00546199 </v>
   <v>       0.00273100 </v>
   <v>       0.00273100 </v>
   <v>       0.00273100 </v>
   <v>       0.00091033 </v>
   <v>       0.00273100 </v>
   <v>       0.00273100 </v>
   <v>       0.00273100 </v>
   <v>       0.00273100 </v>
   <v>       0.00273100 </v>
   <v>       0.00273100 </v>
   <v>       0.00273100 </v>
   <v>       0.00273100 </v>
   <v>       0.00273100 </v>
   <v>       0.00273100 </v>
   <v>       0.00273100 </v>
   <v>       0.00273100 </v>
   <v>       0.00546199 </v>
   <v>       0.00546199 </v>
   <v>       0.00546199 </v>
   <v>       0.00546199 </v>
   <v>       0.00546199 </v>
   <v>       0.00546199 </v>
   <v>       0.00546199 </v>
   <v>       0.00546199 </v>
   <v>       0.00546199 </v>
   <v>       0.00546199 </v>
   <v>       0.00273100 </v>
   <v>       0.00546199 </v>
   <v>       0.00546199 </v>
   <v>       0.00546199 </v>
   <v>       0.00546199 </v>
   <v>       0.00546199 </v>
   <v>       0.00546199 </v>
   <v>       0.00546199 </v>
   <v>       0.00546199 </v>
   <v>       0.00546199 </v>
   <v>       0.00273100 </v>
   <v>       0.00546199 </v>
   <v>       0.00546199 </v>
   <v>       0.00546199 </v>
   <v>       0.00546199 </v>
   <v>       0.00546199 </v>
   <v>       0.00546199 </v>
   <v>       0.00546199 </v>
   <v>       0.00546199 </v>
   <v>       0.00273100 </v>
   <v>       0.00546199 </v>
   <v>       0.00546199 </v>
   <v>       0.00546199 </v>
   <v>       0.00546199 </v>
   <v>       0.00546199 </v>
   <v>       0.00546199 </v>
   <v>       0.00546199 </v>
   <v>       0.00273100 </v>
   <v>       0.00546199 </v>
   <v>       0.00546199 </v>
   <v>       0.00546199 </v>
   <v>       0.00546199 </v>
   <v>       0.00546199 </v>
   <v>       0.00546199 </v>
   <v>       0.00273100 </v>
   <v>       0.00546199 </v>
   <v>       0.00546199 </v>
   <v>       0.00546199 </v>
   <v>       0.00546199 </v>
   <v>       0.00273100 </v>
   <v>       0.00546199 </v>
   <v>       0.00546199 </v>
   <v>       0.00546199 </v>
   <v>       0.00273100 </v>
   <v>       0.00546199 </v>
   <v>       0.00546199 </v>
   <v>       0.00273100 </v>
   <v>       0.00546199 </v>
   <v>       0.00273100 </v>
   <v>       0.00091033 </v>
   <v>       0.00273100 </v>
   <v>       0.00273100 </v>
   <v>       0.00273100 </v>
   <v>       0.00273100 </v>
   <v>       0.00273100 </v>
   <v>       0.00273100 </v>
   <v>       0.00273100 </v>
   <v>       0.00273100 </v>
   <v>       0.00273100 </v>
   <v>       0.00273100 </v>
   <v>       0.00546199 </v>
   <v>       0.00546199 </v>
   <v>       0.00546199 </v>
   <v>       0.00546199 </v>
   <v>       0.00546199 </v>
   <v>       0.00546199 </v>
   <v>       0.00546199 </v>
   <v>       0.00546199 </v>
   <v>       0.00273100 </v>
   <v>       0.00546199 </v>
   <v>       0.00546199 </v>
   <v>       0.00546199 </v>
   <v>       0.00546199 </v>
   <v>       0.00546199 </v>
   <v>       0.00546199 </v>
   <v>       0.00546199 </v>
   <v>       0.00273100 </v>
   <v>       0.00546199 </v>
   <v>       0.00546199 </v>
   <v>       0.00546199 </v>
   <v>       0.00546199 </v>
   <v>       0.00546199 </v>
   <v>       0.00546199 </v>
   <v>       0.00273100 </v>
   <v>       0.00546199 </v>
   <v>       0.00546199 </v>
   <v>       0.00546199 </v>
   <v>       0.00546199 </v>
   <v>       0.00546199 </v>
   <v>       0.00273100 </v>
   <v>       0.00546199 </v>
   <v>       0.00546199 </v>
   <v>       0.00546199 </v>
   <v>       0.00273100 </v>
   <v>       0.00546199 </v>
   <v>       0.00546199 </v>
   <v>       0.00273100 </v>
   <v>       0.00546199 </v>
   <v>       0.00273100 </v>
   <v>       0.00091033 </v>
   <v>       0.00273100 </v>
   <v>       0.00273100 </v>
   <v>       0.00273100 </v>
   <v>       0.00273100 </v>
   <v>       0.00273100 </v>
   <v>       0.00273100 </v>
   <v>       0.00273100 </v>
   <v>       0.00273100 </v>
   <v>       0.00546199 </v>
   <v>       0.00546199 </v>
   <v>       0.00546199 </v>
   <v>       0.00546199 </v>
   <v>       0.00546199 </v>
   <v>       0.00546199 </v>
   <v>       0.00273100 </v>
   <v>       0.00546199 </v>
   <v>       0.00546199 </v>
   <v>       0.00546199 </v>
   <v>       0.00546199 </v>
   <v>       0.00546199 </v>
   <v>       0.00273100 </v>
   <v>       0.00546199 </v>
   <v>       0.00546199 </v>
   <v>       0.00546199 </v>
   <v>       0.00546199 </v>
   <v>       0.00273100 </v>
   <v>       0.00546199 </v>
   <v>       0.00546199 </v>
   <v>       0.00273100 </v>
   <v>       0.00546199 </v>
   <v>       0.00273100 </v>
   <v>       0.00091033 </v>
   <v>       0.00273100 </v>
   <v>       0.00273100 </v>
   <v>       0.00273100 </v>
   <v>       0.00273100 </v>
   <v>       0.00273100 </v>
   <v>       0.00273100 </v>
   <v>       0.00546199 </v>
   <v>       0.00546199 </v>
   <v>       0.00546199 </v>
   <v>       0.00546199 </v>
   <v>       0.00273100 </v>
   <v>       0.00546199 </v>
   <v>       0.00546199 </v>
   <v>       0.00546199 </v>
   <v>       0.00273100 </v>
   <v>       0.00546199 </v>
   <v>       0.00273100 </v>
   <v>       0.00091033 </v>
   <v>       0.00273100 </v>
   <v>       0.00273100 </v>
   <v>       0.00273100 </v>
   <v>       0.00273100 </v>
   <v>       0.00546199 </v>
   <v>       0.00546199 </v>
   <v>       0.00273100 </v>
   <v>       0.00091033 </v>
   <v>       0.00273100 </v>
  </varray>
  <varray name="tetrahedronlist"  type="int" >
   <v type="int" >       12        1        2        8       50 </v>
   <v type="int" >       12        2        8        9       51 </v>
   <v type="int" >       12        2        3        9       51 </v>
   <v type="int" >       12        2        8       50       51 </v>
   <v type="int" >       12        3        9       10       52 </v>
   <v type="int" >       12        3        4       10       52 </v>
   <v type="int" >       12        3        9       51       52 </v>
   <v type="int" >       12        4       10       11       53 </v>
   <v type="int" >       12        4        5       11       53 </v>
   <v type="int" >       12        4       10       52       53 </v>
   <v type="int" >       12        5       11       12       54 </v>
   <v type="int" >       12        5        6       12       54 </v>
   <v type="int" >       12        5       11       53       54 </v>
   <v type="int" >       12        6       12       13       55 </v>
   <v type="int" >       12        6        7       13       55 </v>
   <v type="int" >       12        6       12       54       55 </v>
   <v type="int" >       12        7       13       14       56 </v>
   <v type="int" >       12        7        7       14       56 </v>
   <v type="int" >       12        7       13       55       56 </v>
   <v type="int" >       12        7       14       15       57 </v>
   <v type="int" >       12        6        7       15       57 </v>
   <v type="int" >       12        7       14       56       57 </v>
   <v type="int" >       12        6       15       16       58 </v>
   <v type="int" >       12        5        6       16       58 </v>
   <v type="int" >       12        6       15       57       58 </v>
   <v type="int" >       12        5       16       17       59 </v>
   <v type="int" >       12        4        5       17       59 </v>
   <v type="int" >       12        5       16       58       59 </v>
   <v type="int" >       12        4       17       18       60 </v>
   <v type="int" >       12        3        4       18       60 </v>
   <v type="int" >       12        4       17       59       60 </v>
   <v type="int" >       12        3       18       19       61 </v>
   <v type="int" >       12        2        3       19       61 </v>
   <v type="int" >       12        3       18       60       61 </v>
   <v type="int" >       12        2        2        8       19 </v>
   <v type="int" >       12        1        2        2        8 </v>
   <v type="int" >       12        2        8       19       61 </v>
   <v type="int" >       12        8        9       20       62 </v>
   <v type="int" >       12        8        9       51       62 </v>
   <v type="int" >       12        8       50       51       62 </v>
   <v type="int" >       12        9       20       21       63 </v>
   <v type="int" >       12        9       10       21       63 </v>
   <v type="int" >       12        9       10       52       63 </v>
   <v type="int" >       12        9       20       62       63 </v>
   <v type="int" >       12        9       51       62       63 </v>
   <v type="int" >       12        9       51       52       63 </v>
   <v type="int" >       12       10       21       22       64 </v>
   <v type="int" >       12       10       11       22       64 </v>
   <v type="int" >       12       10       11       53       64 </v>
   <v type="int" >       12       10       21       63       64 </v>
   <v type="int" >       12       10       52       63       64 </v>
   <v type="int" >       12       10       52       53       64 </v>
   <v type="int" >       12       11       22       23       65 </v>
   <v type="int" >       12       11       12       23       65 </v>
   <v type="int" >       12       11       12       54       65 </v>
   <v type="int" >       12       11       22       64       65 </v>
   <v type="int" >       12       11       53       64       65 </v>
   <v type="int" >       12       11       53       54       65 </v>
   <v type="int" >       12       12       23       24       66 </v>
   <v type="int" >       12       12       13       24       66 </v>
   <v type="int" >       12       12       13       55       66 </v>
   <v type="int" >       12       12       23       65       66 </v>
   <v type="int" >       12       12       54       65       66 </v>
   <v type="int" >       12       12       54       55       66 </v>
   <v type="int" >       12       13       24       25       67 </v>
   <v type="int" >       12       13       14       25       67 </v>
   <v type="int" >       12       13       14       56       67 </v>
   <v type="int" >       12       13       24       66       67 </v>
   <v type="int" >       12       13       55       66       67 </v>
   <v type="int" >       12       13       55       56       67 </v>
   <v type="int" >       12       14       25       26       68 </v>
   <v type="int" >       12       14       15       26       68 </v>
   <v type="int" >       12       14       15       57       68 </v>
   <v type="int" >       12       14       25       67       68 </v>
   <v type="int" >       12       14       56       67       68 </v>
   <v type="int" >       12       14       56       57       68 </v>
   <v type="int" >       12       15       26       27       69 </v>
   <v type="int" >       12       15       16       27       69 </v>
   <v type="int" >       12       15       16       58       69 </v>
   <v type="int" >       12       15       26       68       69 </v>
   <v type="int" >       12       15       57       68       69 </v>
   <v type="int" >       12       15       57       58       69 </v>
   <v type="int" >       12       16       27       28       70 </v>
   <v type="int" >       12       16       17       28       70 </v>
   <v type="int" >       12       16       17       59       70 </v>
   <v type="int" >       12       16       27       69       70 </v>
   <v type="int" >       12       16       58       69       70 </v>
   <v type="int" >       12       16       58       59       70 </v>
   <v type="int" >       12       17       28       29       71 </v>
   <v type="int" >       12       17       18       29       71 </v>
   <v type="int" >       12       17       18       60       71 </v>
   <v type="int" >       12       17       28       70       71 </v>
   <v type="int" >       12       17       59       70       71 </v>
   <v type="int" >       12       17       59       60       71 </v>
   <v type="int" >       12       18       18       29       72 </v>
   <v type="int" >       12       18       18       19       72 </v>
   <v type="int" >       12       18       19       61       72 </v>
   <v type="int" >       12       18       29       71       72 </v>
   <v type="int" >       12       18       60       71       72 </v>
   <v type="int" >       12       18       60       61       72 </v>
   <v type="int" >       12        3        9       18       19 </v>
   <v type="int" >       12        2        3        9       19 </v>
   <v type="int" >       12        2        8        9       19 </v>
   <v type="int" >       12        9       18       19       72 </v>
   <v type="int" >       12        9       19       61       72 </v>
   <v type="int" >       12        8        9       19       61 </v>
   <v type="int" >       12       20       21       30       73 </v>
   <v type="int" >       12       20       21       63       73 </v>
   <v type="int" >       12       20       62       63       73 </v>
   <v type="int" >       12       21       30       31       74 </v>
   <v type="int" >       12       21       22       31       74 </v>
   <v type="int" >       12       21       22       64       74 </v>
   <v type="int" >       12       21       30       73       74 </v>
   <v type="int" >       12       21       63       73       74 </v>
   <v type="int" >       12       21       63       64       74 </v>
   <v type="int" >       12       22       31       32       75 </v>
   <v type="int" >       12       22       23       32       75 </v>
   <v type="int" >       12       22       23       65       75 </v>
   <v type="int" >       12       22       31       74       75 </v>
   <v type="int" >       12       22       64       74       75 </v>
   <v type="int" >       12       22       64       65       75 </v>
   <v type="int" >       12       23       32       33       76 </v>
   <v type="int" >       12       23       24       33       76 </v>
   <v type="int" >       12       23       24       66       76 </v>
   <v type="int" >       12       23       32       75       76 </v>
   <v type="int" >       12       23       65       75       76 </v>
   <v type="int" >       12       23       65       66       76 </v>
   <v type="int" >       12       24       33       34       77 </v>
   <v type="int" >       12       24       25       34       77 </v>
   <v type="int" >       12       24       25       67       77 </v>
   <v type="int" >       12       24       33       76       77 </v>
   <v type="int" >       12       24       66       76       77 </v>
   <v type="int" >       12       24       66       67       77 </v>
   <v type="int" >       12       25       34       35       78 </v>
   <v type="int" >       12       25       26       35       78 </v>
   <v type="int" >       12       25       26       68       78 </v>
   <v type="int" >       12       25       34       77       78 </v>
   <v type="int" >       12       25       67       77       78 </v>
   <v type="int" >       12       25       67       68       78 </v>
   <v type="int" >       12       26       35       36       79 </v>
   <v type="int" >       12       26       27       36       79 </v>
   <v type="int" >       12       26       27       69       79 </v>
   <v type="int" >       12       26       35       78       79 </v>
   <v type="int" >       12       26       68       78       79 </v>
   <v type="int" >       12       26       68       69       79 </v>
   <v type="int" >       12       27       36       37       80 </v>
   <v type="int" >       12       27       28       37       80 </v>
   <v type="int" >       12       27       28       70       80 </v>
   <v type="int" >       12       27       36       79       80 </v>
   <v type="int" >       12       27       69       79       80 </v>
   <v type="int" >       12       27       69       70       80 </v>
   <v type="int" >       12       28       28       37       81 </v>
   <v type="int" >       12       28       28       29       81 </v>
   <v type="int" >       12       28       29       71       81 </v>
   <v type="int" >       12       28       37       80       81 </v>
   <v type="int" >       12       28       70       80       81 </v>
   <v type="int" >       12       28       70       71       81 </v>
   <v type="int" >       12       17       28       29       82 </v>
   <v type="int" >       12       17       18       29       82 </v>
   <v type="int" >       12       18       29       72       82 </v>
   <v type="int" >       12       28       29       81       82 </v>
   <v type="int" >       12       29       71       81       82 </v>
   <v type="int" >       12       29       71       72       82 </v>
   <v type="int" >       12        4       10       17       18 </v>
   <v type="int" >       12        3        4       10       18 </v>
   <v type="int" >       12        3        9       10       18 </v>
   <v type="int" >       12       10       17       18       82 </v>
   <v type="int" >       12       10       18       72       82 </v>
   <v type="int" >       12        9       10       18       72 </v>
   <v type="int" >       12       30       31       38       83 </v>
   <v type="int" >       12       30       31       74       83 </v>
   <v type="int" >       12       30       73       74       83 </v>
   <v type="int" >       12       31       38       39       84 </v>
   <v type="int" >       12       31       32       39       84 </v>
   <v type="int" >       12       31       32       75       84 </v>
   <v type="int" >       12       31       38       83       84 </v>
   <v type="int" >       12       31       74       83       84 </v>
   <v type="int" >       12       31       74       75       84 </v>
   <v type="int" >       12       32       39       40       85 </v>
   <v type="int" >       12       32       33       40       85 </v>
   <v type="int" >       12       32       33       76       85 </v>
   <v type="int" >       12       32       39       84       85 </v>
   <v type="int" >       12       32       75       84       85 </v>
   <v type="int" >       12       32       75       76       85 </v>
   <v type="int" >       12       33       40       41       86 </v>
   <v type="int" >       12       33       34       41       86 </v>
   <v type="int" >       12       33       34       77       86 </v>
   <v type="int" >       12       33       40       85       86 </v>
   <v type="int" >       12       33       76       85       86 </v>
   <v type="int" >       12       33       76       77       86 </v>
   <v type="int" >       12       34       41       42       87 </v>
   <v type="int" >       12       34       35       42       87 </v>
   <v type="int" >       12       34       35       78       87 </v>
   <v type="int" >       12       34       41       86       87 </v>
   <v type="int" >       12       34       77       86       87 </v>
   <v type="int" >       12       34       77       78       87 </v>
   <v type="int" >       12       35       42       43       88 </v>
   <v type="int" >       12       35       36       43       88 </v>
   <v type="int" >       12       35       36       79       88 </v>
   <v type="int" >       12       35       42       87       88 </v>
   <v type="int" >       12       35       78       87       88 </v>
   <v type="int" >       12       35       78       79       88 </v>
   <v type="int" >       12       36       36       43       89 </v>
   <v type="int" >       12       36       36       37       89 </v>
   <v type="int" >       12       36       37       80       89 </v>
   <v type="int" >       12       36       43       88       89 </v>
   <v type="int" >       12       36       79       88       89 </v>
   <v type="int" >       12       36       79       80       89 </v>
   <v type="int" >       12       27       36       37       90 </v>
   <v type="int" >       12       27       28       37       90 </v>
   <v type="int" >       12       28       37       81       90 </v>
   <v type="int" >       12       36       37       89       90 </v>
   <v type="int" >       12       37       80       89       90 </v>
   <v type="int" >       12       37       80       81       90 </v>
   <v type="int" >       12       16       27       28       91 </v>
   <v type="int" >       12       16       17       28       91 </v>
   <v type="int" >       12       17       28       82       91 </v>
   <v type="int" >       12       27       28       90       91 </v>
   <v type="int" >       12       28       81       90       91 </v>
   <v type="int" >       12       28       81       82       91 </v>
   <v type="int" >       12        5       11       16       17 </v>
   <v type="int" >       12        4        5       11       17 </v>
   <v type="int" >       12        4       10       11       17 </v>
   <v type="int" >       12       11       16       17       91 </v>
   <v type="int" >       12       11       17       82       91 </v>
   <v type="int" >       12       10       11       17       82 </v>
   <v type="int" >       12       38       39       44       92 </v>
   <v type="int" >       12       38       39       84       92 </v>
   <v type="int" >       12       38       83       84       92 </v>
   <v type="int" >       12       39       44       45       93 </v>
   <v type="int" >       12       39       40       45       93 </v>
   <v type="int" >       12       39       40       85       93 </v>
   <v type="int" >       12       39       44       92       93 </v>
   <v type="int" >       12       39       84       92       93 </v>
   <v type="int" >       12       39       84       85       93 </v>
   <v type="int" >       12       40       45       46       94 </v>
   <v type="int" >       12       40       41       46       94 </v>
   <v type="int" >       12       40       41       86       94 </v>
   <v type="int" >       12       40       45       93       94 </v>
   <v type="int" >       12       40       85       93       94 </v>
   <v type="int" >       12       40       85       86       94 </v>
   <v type="int" >       12       41       46       47       95 </v>
   <v type="int" >       12       41       42       47       95 </v>
   <v type="int" >       12       41       42       87       95 </v>
   <v type="int" >       12       41       46       94       95 </v>
   <v type="int" >       12       41       86       94       95 </v>
   <v type="int" >       12       41       86       87       95 </v>
   <v type="int" >       12       42       42       47       96 </v>
   <v type="int" >       12       42       42       43       96 </v>
   <v type="int" >       12       42       43       88       96 </v>
   <v type="int" >       12       42       47       95       96 </v>
   <v type="int" >       12       42       87       95       96 </v>
   <v type="int" >       12       42       87       88       96 </v>
   <v type="int" >       12       35       42       43       97 </v>
   <v type="int" >       12       35       36       43       97 </v>
   <v type="int" >       12       36       43       89       97 </v>
   <v type="int" >       12       42       43       96       97 </v>
   <v type="int" >       12       43       88       96       97 </v>
   <v type="int" >       12       43       88       89       97 </v>
   <v type="int" >       12       26       35       36       98 </v>
   <v type="int" >       12       26       27       36       98 </v>
   <v type="int" >       12       27       36       90       98 </v>
   <v type="int" >       12       35       36       97       98 </v>
   <v type="int" >       12       36       89       97       98 </v>
   <v type="int" >       12       36       89       90       98 </v>
   <v type="int" >       12       15       26       27       99 </v>
   <v type="int" >       12       15       16       27       99 </v>
   <v type="int" >       12       16       27       91       99 </v>
   <v type="int" >       12       26       27       98       99 </v>
   <v type="int" >       12       27       90       98       99 </v>
   <v type="int" >       12       27       90       91       99 </v>
   <v type="int" >       12        6       12       15       16 </v>
   <v type="int" >       12        5        6       12       16 </v>
   <v type="int" >       12        5       11       12       16 </v>
   <v type="int" >       12       12       15       16       99 </v>
   <v type="int" >       12       12       16       91       99 </v>
   <v type="int" >       12       11       12       16       91 </v>
   <v type="int" >       12       44       45       48      100 </v>
   <v type="int" >       12       44       45       93      100 </v>
   <v type="int" >       12       44       92       93      100 </v>
   <v type="int" >       12       45       48       49      101 </v>
   <v type="int" >       12       45       46       49      101 </v>
   <v type="int" >       12       45       46       94      101 </v>
   <v type="int" >       12       45       48      100      101 </v>
   <v type="int" >       12       45       93      100      101 </v>
   <v type="int" >       12       45       93       94      101 </v>
   <v type="int" >       12       46       46       49      102 </v>
   <v type="int" >       12       46       46       47      102 </v>
   <v type="int" >       12       46       47       95      102 </v>
   <v type="int" >       12       46       49      101      102 </v>
   <v type="int" >       12       46       94      101      102 </v>
   <v type="int" >       12       46       94       95      102 </v>
   <v type="int" >       12       41       46       47      103 </v>
   <v type="int" >       12       41       42       47      103 </v>
   <v type="int" >       12       42       47       96      103 </v>
   <v type="int" >       12       46       47      102      103 </v>
   <v type="int" >       12       47       95      102      103 </v>
   <v type="int" >       12       47       95       96      103 </v>
   <v type="int" >       12       34       41       42      104 </v>
   <v type="int" >       12       34       35       42      104 </v>
   <v type="int" >       12       35       42       97      104 </v>
   <v type="int" >       12       41       42      103      104 </v>
   <v type="int" >       12       42       96      103      104 </v>
   <v type="int" >       12       42       96       97      104 </v>
   <v type="int" >       12       25       34       35      105 </v>
   <v type="int" >       12       25       26       35      105 </v>
   <v type="int" >       12       26       35       98      105 </v>
   <v type="int" >       12       34       35      104      105 </v>
   <v type="int" >       12       35       97      104      105 </v>
   <v type="int" >       12       35       97       98      105 </v>
   <v type="int" >       12       14       25       26      106 </v>
   <v type="int" >       12       14       15       26      106 </v>
   <v type="int" >       12       15       26       99      106 </v>
   <v type="int" >       12       25       26      105      106 </v>
   <v type="int" >       12       26       98      105      106 </v>
   <v type="int" >       12       26       98       99      106 </v>
   <v type="int" >       12        7       13       14       15 </v>
   <v type="int" >       12        6        7       13       15 </v>
   <v type="int" >       12        6       12       13       15 </v>
   <v type="int" >       12       13       14       15      106 </v>
   <v type="int" >       12       13       15       99      106 </v>
   <v type="int" >       12       12       13       15       99 </v>
   <v type="int" >       12       48       48       49      107 </v>
   <v type="int" >       12       48       49      101      107 </v>
   <v type="int" >       12       48      100      101      107 </v>
   <v type="int" >       12       45       48       49      108 </v>
   <v type="int" >       12       45       46       49      108 </v>
   <v type="int" >       12       46       49      102      108 </v>
   <v type="int" >       12       48       49      107      108 </v>
   <v type="int" >       12       49      101      107      108 </v>
   <v type="int" >       12       49      101      102      108 </v>
   <v type="int" >       12       40       45       46      109 </v>
   <v type="int" >       12       40       41       46      109 </v>
   <v type="int" >       12       41       46      103      109 </v>
   <v type="int" >       12       45       46      108      109 </v>
   <v type="int" >       12       46      102      108      109 </v>
   <v type="int" >       12       46      102      103      109 </v>
   <v type="int" >       12       33       40       41      110 </v>
   <v type="int" >       12       33       34       41      110 </v>
   <v type="int" >       12       34       41      104      110 </v>
   <v type="int" >       12       40       41      109      110 </v>
   <v type="int" >       12       41      103      109      110 </v>
   <v type="int" >       12       41      103      104      110 </v>
   <v type="int" >       12       24       33       34      111 </v>
   <v type="int" >       12       24       25       34      111 </v>
   <v type="int" >       12       25       34      105      111 </v>
   <v type="int" >       12       33       34      110      111 </v>
   <v type="int" >       12       34      104      110      111 </v>
   <v type="int" >       12       34      104      105      111 </v>
   <v type="int" >       12       13       24       25      106 </v>
   <v type="int" >       12       13       14       25      106 </v>
   <v type="int" >       12       14       25      106      106 </v>
   <v type="int" >       12       24       25      106      111 </v>
   <v type="int" >       12       25      105      106      111 </v>
   <v type="int" >       12       25      105      106      106 </v>
   <v type="int" >       12        7       13       14       14 </v>
   <v type="int" >        6        7        7       14       14 </v>
   <v type="int" >       12       13       14       14      106 </v>
   <v type="int" >        6       14       14      106      106 </v>
   <v type="int" >       12       44       45       48      112 </v>
   <v type="int" >       12       45       48      108      112 </v>
   <v type="int" >       12       48      107      108      112 </v>
   <v type="int" >       12       39       44       45      113 </v>
   <v type="int" >       12       39       40       45      113 </v>
   <v type="int" >       12       40       45      109      113 </v>
   <v type="int" >       12       44       45      112      113 </v>
   <v type="int" >       12       45      108      112      113 </v>
   <v type="int" >       12       45      108      109      113 </v>
   <v type="int" >       12       32       39       40      114 </v>
   <v type="int" >       12       32       33       40      114 </v>
   <v type="int" >       12       33       40      110      114 </v>
   <v type="int" >       12       39       40      113      114 </v>
   <v type="int" >       12       40      109      113      114 </v>
   <v type="int" >       12       40      109      110      114 </v>
   <v type="int" >       12       23       32       33      115 </v>
   <v type="int" >       12       23       24       33      115 </v>
   <v type="int" >       12       24       33      111      115 </v>
   <v type="int" >       12       32       33      114      115 </v>
   <v type="int" >       12       33      110      114      115 </v>
   <v type="int" >       12       33      110      111      115 </v>
   <v type="int" >       12       12       23       24       99 </v>
   <v type="int" >       12       12       13       24       99 </v>
   <v type="int" >       12       13       24       99      106 </v>
   <v type="int" >       12       23       24       99      115 </v>
   <v type="int" >       12       24       99      111      115 </v>
   <v type="int" >       12       24       99      106      111 </v>
   <v type="int" >       12       38       39       44      116 </v>
   <v type="int" >       12       39       44      113      116 </v>
   <v type="int" >       12       44      112      113      116 </v>
   <v type="int" >       12       31       38       39      117 </v>
   <v type="int" >       12       31       32       39      117 </v>
   <v type="int" >       12       32       39      114      117 </v>
   <v type="int" >       12       38       39      116      117 </v>
   <v type="int" >       12       39      113      116      117 </v>
   <v type="int" >       12       39      113      114      117 </v>
   <v type="int" >       12       22       31       32      118 </v>
   <v type="int" >       12       22       23       32      118 </v>
   <v type="int" >       12       23       32      115      118 </v>
   <v type="int" >       12       31       32      117      118 </v>
   <v type="int" >       12       32      114      117      118 </v>
   <v type="int" >       12       32      114      115      118 </v>
   <v type="int" >       12       11       22       23       91 </v>
   <v type="int" >       12       11       12       23       91 </v>
   <v type="int" >       12       12       23       91       99 </v>
   <v type="int" >       12       22       23       91      118 </v>
   <v type="int" >       12       23       91      115      118 </v>
   <v type="int" >       12       23       91       99      115 </v>
   <v type="int" >       12       30       31       38      119 </v>
   <v type="int" >       12       31       38      117      119 </v>
   <v type="int" >       12       38      116      117      119 </v>
   <v type="int" >       12       21       30       31      120 </v>
   <v type="int" >       12       21       22       31      120 </v>
   <v type="int" >       12       22       31      118      120 </v>
   <v type="int" >       12       30       31      119      120 </v>
   <v type="int" >       12       31      117      119      120 </v>
   <v type="int" >       12       31      117      118      120 </v>
   <v type="int" >       12       10       21       22       82 </v>
   <v type="int" >       12       10       11       22       82 </v>
   <v type="int" >       12       11       22       82       91 </v>
   <v type="int" >       12       21       22       82      120 </v>
   <v type="int" >       12       22       82      118      120 </v>
   <v type="int" >       12       22       82       91      118 </v>
   <v type="int" >       12       20       21       30      121 </v>
   <v type="int" >       12       21       30      120      121 </v>
   <v type="int" >       12       30      119      120      121 </v>
   <v type="int" >       12        9       20       21       72 </v>
   <v type="int" >       12        9       10       21       72 </v>
   <v type="int" >       12       10       21       72       82 </v>
   <v type="int" >       12       20       21       72      121 </v>
   <v type="int" >       12       21       72      120      121 </v>
   <v type="int" >       12       21       72       82      120 </v>
   <v type="int" >       12        8        9       20       61 </v>
   <v type="int" >       12        9       20       61       72 </v>
   <v type="int" >       12       20       61       72      121 </v>
   <v type="int" >       12       50       51       62      122 </v>
   <v type="int" >       12       51       62       63      123 </v>
   <v type="int" >       12       51       52       63      123 </v>
   <v type="int" >       12       51       62      122      123 </v>
   <v type="int" >       12       52       63       64      124 </v>
   <v type="int" >       12       52       53       64      124 </v>
   <v type="int" >       12       52       63      123      124 </v>
   <v type="int" >       12       53       64       65      125 </v>
   <v type="int" >       12       53       54       65      125 </v>
   <v type="int" >       12       53       64      124      125 </v>
   <v type="int" >       12       54       65       66      126 </v>
   <v type="int" >       12       54       55       66      126 </v>
   <v type="int" >       12       54       65      125      126 </v>
   <v type="int" >       12       55       66       67      127 </v>
   <v type="int" >       12       55       56       67      127 </v>
   <v type="int" >       12       55       66      126      127 </v>
   <v type="int" >       12       56       67       68      128 </v>
   <v type="int" >       12       56       57       68      128 </v>
   <v type="int" >       12       56       67      127      128 </v>
   <v type="int" >       12       57       68       69      129 </v>
   <v type="int" >       12       57       58       69      129 </v>
   <v type="int" >       12       57       68      128      129 </v>
   <v type="int" >       12       58       69       70      130 </v>
   <v type="int" >       12       58       59       70      130 </v>
   <v type="int" >       12       58       69      129      130 </v>
   <v type="int" >       12       59       70       71      131 </v>
   <v type="int" >       12       59       60       71      131 </v>
   <v type="int" >       12       59       70      130      131 </v>
   <v type="int" >       12       60       71       72      121 </v>
   <v type="int" >       12       60       61       72      121 </v>
   <v type="int" >       12       60       71      121      131 </v>
   <v type="int" >       12       62       63       73      132 </v>
   <v type="int" >       12       62       63      123      132 </v>
   <v type="int" >       12       62      122      123      132 </v>
   <v type="int" >       12       63       73       74      133 </v>
   <v type="int" >       12       63       64       74      133 </v>
   <v type="int" >       12       63       64      124      133 </v>
   <v type="int" >       12       63       73      132      133 </v>
   <v type="int" >       12       63      123      132      133 </v>
   <v type="int" >       12       63      123      124      133 </v>
   <v type="int" >       12       64       74       75      134 </v>
   <v type="int" >       12       64       65       75      134 </v>
   <v type="int" >       12       64       65      125      134 </v>
   <v type="int" >       12       64       74      133      134 </v>
   <v type="int" >       12       64      124      133      134 </v>
   <v type="int" >       12       64      124      125      134 </v>
   <v type="int" >       12       65       75       76      135 </v>
   <v type="int" >       12       65       66       76      135 </v>
   <v type="int" >       12       65       66      126      135 </v>
   <v type="int" >       12       65       75      134      135 </v>
   <v type="int" >       12       65      125      134      135 </v>
   <v type="int" >       12       65      125      126      135 </v>
   <v type="int" >       12       66       76       77      136 </v>
   <v type="int" >       12       66       67       77      136 </v>
   <v type="int" >       12       66       67      127      136 </v>
   <v type="int" >       12       66       76      135      136 </v>
   <v type="int" >       12       66      126      135      136 </v>
   <v type="int" >       12       66      126      127      136 </v>
   <v type="int" >       12       67       77       78      137 </v>
   <v type="int" >       12       67       68       78      137 </v>
   <v type="int" >       12       67       68      128      137 </v>
   <v type="int" >       12       67       77      136      137 </v>
   <v type="int" >       12       67      127      136      137 </v>
   <v type="int" >       12       67      127      128      137 </v>
   <v type="int" >       12       68       78       79      138 </v>
   <v type="int" >       12       68       69       79      138 </v>
   <v type="int" >       12       68       69      129      138 </v>
   <v type="int" >       12       68       78      137      138 </v>
   <v type="int" >       12       68      128      137      138 </v>
   <v type="int" >       12       68      128      129      138 </v>
   <v type="int" >       12       69       79       80      139 </v>
   <v type="int" >       12       69       70       80      139 </v>
   <v type="int" >       12       69       70      130      139 </v>
   <v type="int" >       12       69       79      138      139 </v>
   <v type="int" >       12       69      129      138      139 </v>
   <v type="int" >       12       69      129      130      139 </v>
   <v type="int" >       12       70       80       81      140 </v>
   <v type="int" >       12       70       71       81      140 </v>
   <v type="int" >       12       70       71      131      140 </v>
   <v type="int" >       12       70       80      139      140 </v>
   <v type="int" >       12       70      130      139      140 </v>
   <v type="int" >       12       70      130      131      140 </v>
   <v type="int" >       12       71       81       82      120 </v>
   <v type="int" >       12       71       72       82      120 </v>
   <v type="int" >       12       71       72      120      121 </v>
   <v type="int" >       12       71       81      120      140 </v>
   <v type="int" >       12       71      120      131      140 </v>
   <v type="int" >       12       71      120      121      131 </v>
   <v type="int" >       12       73       74       83      141 </v>
   <v type="int" >       12       73       74      133      141 </v>
   <v type="int" >       12       73      132      133      141 </v>
   <v type="int" >       12       74       83       84      142 </v>
   <v type="int" >       12       74       75       84      142 </v>
   <v type="int" >       12       74       75      134      142 </v>
   <v type="int" >       12       74       83      141      142 </v>
   <v type="int" >       12       74      133      141      142 </v>
   <v type="int" >       12       74      133      134      142 </v>
   <v type="int" >       12       75       84       85      143 </v>
   <v type="int" >       12       75       76       85      143 </v>
   <v type="int" >       12       75       76      135      143 </v>
   <v type="int" >       12       75       84      142      143 </v>
   <v type="int" >       12       75      134      142      143 </v>
   <v type="int" >       12       75      134      135      143 </v>
   <v type="int" >       12       76       85       86      144 </v>
   <v type="int" >       12       76       77       86      144 </v>
   <v type="int" >       12       76       77      136      144 </v>
   <v type="int" >       12       76       85      143      144 </v>
   <v type="int" >       12       76      135      143      144 </v>
   <v type="int" >       12       76      135      136      144 </v>
   <v type="int" >       12       77       86       87      145 </v>
   <v type="int" >       12       77       78       87      145 </v>
   <v type="int" >       12       77       78      137      145 </v>
   <v type="int" >       12       77       86      144      145 </v>
   <v type="int" >       12       77      136      144      145 </v>
   <v type="int" >       12       77      136      137      145 </v>
   <v type="int" >       12       78       87       88      146 </v>
   <v type="int" >       12       78       79       88      146 </v>
   <v type="int" >       12       78       79      138      146 </v>
   <v type="int" >       12       78       87      145      146 </v>
   <v type="int" >       12       78      137      145      146 </v>
   <v type="int" >       12       78      137      138      146 </v>
   <v type="int" >       12       79       88       89      147 </v>
   <v type="int" >       12       79       80       89      147 </v>
   <v type="int" >       12       79       80      139      147 </v>
   <v type="int" >       12       79       88      146      147 </v>
   <v type="int" >       12       79      138      146      147 </v>
   <v type="int" >       12       79      138      139      147 </v>
   <v type="int" >       12       80       89       90      148 </v>
   <v type="int" >       12       80       81       90      148 </v>
   <v type="int" >       12       80       81      140      148 </v>
   <v type="int" >       12       80       89      147      148 </v>
   <v type="int" >       12       80      139      147      148 </v>
   <v type="int" >       12       80      139      140      148 </v>
   <v type="int" >       12       81       90       91      118 </v>
   <v type="int" >       12       81       82       91      118 </v>
   <v type="int" >       12       81       82      118      120 </v>
   <v type="int" >       12       81       90      118      148 </v>
   <v type="int" >       12       81      118      140      148 </v>
   <v type="int" >       12       81      118      120      140 </v>
   <v type="int" >       12       83       84       92      149 </v>
   <v type="int" >       12       83       84      142      149 </v>
   <v type="int" >       12       83      141      142      149 </v>
   <v type="int" >       12       84       92       93      150 </v>
   <v type="int" >       12       84       85       93      150 </v>
   <v type="int" >       12       84       85      143      150 </v>
   <v type="int" >       12       84       92      149      150 </v>
   <v type="int" >       12       84      142      149      150 </v>
   <v type="int" >       12       84      142      143      150 </v>
   <v type="int" >       12       85       93       94      151 </v>
   <v type="int" >       12       85       86       94      151 </v>
   <v type="int" >       12       85       86      144      151 </v>
   <v type="int" >       12       85       93      150      151 </v>
   <v type="int" >       12       85      143      150      151 </v>
   <v type="int" >       12       85      143      144      151 </v>
   <v type="int" >       12       86       94       95      152 </v>
   <v type="int" >       12       86       87       95      152 </v>
   <v type="int" >       12       86       87      145      152 </v>
   <v type="int" >       12       86       94      151      152 </v>
   <v type="int" >       12       86      144      151      152 </v>
   <v type="int" >       12       86      144      145      152 </v>
   <v type="int" >       12       87       95       96      153 </v>
   <v type="int" >       12       87       88       96      153 </v>
   <v type="int" >       12       87       88      146      153 </v>
   <v type="int" >       12       87       95      152      153 </v>
   <v type="int" >       12       87      145      152      153 </v>
   <v type="int" >       12       87      145      146      153 </v>
   <v type="int" >       12       88       96       97      154 </v>
   <v type="int" >       12       88       89       97      154 </v>
   <v type="int" >       12       88       89      147      154 </v>
   <v type="int" >       12       88       96      153      154 </v>
   <v type="int" >       12       88      146      153      154 </v>
   <v type="int" >       12       88      146      147      154 </v>
   <v type="int" >       12       89       97       98      155 </v>
   <v type="int" >       12       89       90       98      155 </v>
   <v type="int" >       12       89       90      148      155 </v>
   <v type="int" >       12       89       97      154      155 </v>
   <v type="int" >       12       89      147      154      155 </v>
   <v type="int" >       12       89      147      148      155 </v>
   <v type="int" >       12       90       98       99      115 </v>
   <v type="int" >       12       90       91       99      115 </v>
   <v type="int" >       12       90       91      115      118 </v>
   <v type="int" >       12       90       98      115      155 </v>
   <v type="int" >       12       90      115      148      155 </v>
   <v type="int" >       12       90      115      118      148 </v>
   <v type="int" >       12       92       93      100      156 </v>
   <v type="int" >       12       92       93      150      156 </v>
   <v type="int" >       12       92      149      150      156 </v>
   <v type="int" >       12       93      100      101      157 </v>
   <v type="int" >       12       93       94      101      157 </v>
   <v type="int" >       12       93       94      151      157 </v>
   <v type="int" >       12       93      100      156      157 </v>
   <v type="int" >       12       93      150      156      157 </v>
   <v type="int" >       12       93      150      151      157 </v>
   <v type="int" >       12       94      101      102      158 </v>
   <v type="int" >       12       94       95      102      158 </v>
   <v type="int" >       12       94       95      152      158 </v>
   <v type="int" >       12       94      101      157      158 </v>
   <v type="int" >       12       94      151      157      158 </v>
   <v type="int" >       12       94      151      152      158 </v>
   <v type="int" >       12       95      102      103      159 </v>
   <v type="int" >       12       95       96      103      159 </v>
   <v type="int" >       12       95       96      153      159 </v>
   <v type="int" >       12       95      102      158      159 </v>
   <v type="int" >       12       95      152      158      159 </v>
   <v type="int" >       12       95      152      153      159 </v>
   <v type="int" >       12       96      103      104      160 </v>
   <v type="int" >       12       96       97      104      160 </v>
   <v type="int" >       12       96       97      154      160 </v>
   <v type="int" >       12       96      103      159      160 </v>
   <v type="int" >       12       96      153      159      160 </v>
   <v type="int" >       12       96      153      154      160 </v>
   <v type="int" >       12       97      104      105      161 </v>
   <v type="int" >       12       97       98      105      161 </v>
   <v type="int" >       12       97       98      155      161 </v>
   <v type="int" >       12       97      104      160      161 </v>
   <v type="int" >       12       97      154      160      161 </v>
   <v type="int" >       12       97      154      155      161 </v>
   <v type="int" >       12       98      105      106      111 </v>
   <v type="int" >       12       98       99      106      111 </v>
   <v type="int" >       12       98       99      111      115 </v>
   <v type="int" >       12       98      105      111      161 </v>
   <v type="int" >       12       98      111      155      161 </v>
   <v type="int" >       12       98      111      115      155 </v>
   <v type="int" >       12      100      101      107      162 </v>
   <v type="int" >       12      100      101      157      162 </v>
   <v type="int" >       12      100      156      157      162 </v>
   <v type="int" >       12      101      107      108      163 </v>
   <v type="int" >       12      101      102      108      163 </v>
   <v type="int" >       12      101      102      158      163 </v>
   <v type="int" >       12      101      107      162      163 </v>
   <v type="int" >       12      101      157      162      163 </v>
   <v type="int" >       12      101      157      158      163 </v>
   <v type="int" >       12      102      108      109      164 </v>
   <v type="int" >       12      102      103      109      164 </v>
   <v type="int" >       12      102      103      159      164 </v>
   <v type="int" >       12      102      108      163      164 </v>
   <v type="int" >       12      102      158      163      164 </v>
   <v type="int" >       12      102      158      159      164 </v>
   <v type="int" >       12      103      109      110      165 </v>
   <v type="int" >       12      103      104      110      165 </v>
   <v type="int" >       12      103      104      160      165 </v>
   <v type="int" >       12      103      109      164      165 </v>
   <v type="int" >       12      103      159      164      165 </v>
   <v type="int" >       12      103      159      160      165 </v>
   <v type="int" >       12      104      110      111      161 </v>
   <v type="int" >       12      104      105      111      161 </v>
   <v type="int" >       12      104      105      161      161 </v>
   <v type="int" >       12      104      110      161      165 </v>
   <v type="int" >       12      104      160      161      165 </v>
   <v type="int" >       12      104      160      161      161 </v>
   <v type="int" >       12      105      105      106      111 </v>
   <v type="int" >        6      105      105      106      106 </v>
   <v type="int" >       12      105      105      111      161 </v>
   <v type="int" >        6      105      105      161      161 </v>
   <v type="int" >       12      107      108      112      166 </v>
   <v type="int" >       12      107      108      163      166 </v>
   <v type="int" >       12      107      162      163      166 </v>
   <v type="int" >       12      108      112      113      167 </v>
   <v type="int" >       12      108      109      113      167 </v>
   <v type="int" >       12      108      109      164      167 </v>
   <v type="int" >       12      108      112      166      167 </v>
   <v type="int" >       12      108      163      166      167 </v>
   <v type="int" >       12      108      163      164      167 </v>
   <v type="int" >       12      109      113      114      168 </v>
   <v type="int" >       12      109      110      114      168 </v>
   <v type="int" >       12      109      110      165      168 </v>
   <v type="int" >       12      109      113      167      168 </v>
   <v type="int" >       12      109      164      167      168 </v>
   <v type="int" >       12      109      164      165      168 </v>
   <v type="int" >       12      110      114      115      155 </v>
   <v type="int" >       12      110      111      115      155 </v>
   <v type="int" >       12      110      111      155      161 </v>
   <v type="int" >       12      110      114      155      168 </v>
   <v type="int" >       12      110      155      165      168 </v>
   <v type="int" >       12      110      155      161      165 </v>
   <v type="int" >       12      112      113      116      169 </v>
   <v type="int" >       12      112      113      167      169 </v>
   <v type="int" >       12      112      166      167      169 </v>
   <v type="int" >       12      113      116      117      170 </v>
   <v type="int" >       12      113      114      117      170 </v>
   <v type="int" >       12      113      114      168      170 </v>
   <v type="int" >       12      113      116      169      170 </v>
   <v type="int" >       12      113      167      169      170 </v>
   <v type="int" >       12      113      167      168      170 </v>
   <v type="int" >       12      114      117      118      148 </v>
   <v type="int" >       12      114      115      118      148 </v>
   <v type="int" >       12      114      115      148      155 </v>
   <v type="int" >       12      114      117      148      170 </v>
   <v type="int" >       12      114      148      168      170 </v>
   <v type="int" >       12      114      148      155      168 </v>
   <v type="int" >       12      116      117      119      171 </v>
   <v type="int" >       12      116      117      170      171 </v>
   <v type="int" >       12      116      169      170      171 </v>
   <v type="int" >       12      117      119      120      140 </v>
   <v type="int" >       12      117      118      120      140 </v>
   <v type="int" >       12      117      118      140      148 </v>
   <v type="int" >       12      117      119      140      171 </v>
   <v type="int" >       12      117      140      170      171 </v>
   <v type="int" >       12      117      140      148      170 </v>
   <v type="int" >       12      119      120      121      131 </v>
   <v type="int" >       12      119      120      131      140 </v>
   <v type="int" >       12      119      131      140      171 </v>
   <v type="int" >       12      122      123      132      172 </v>
   <v type="int" >       12      123      132      133      173 </v>
   <v type="int" >       12      123      124      133      173 </v>
   <v type="int" >       12      123      132      172      173 </v>
   <v type="int" >       12      124      133      134      174 </v>
   <v type="int" >       12      124      125      134      174 </v>
   <v type="int" >       12      124      133      173      174 </v>
   <v type="int" >       12      125      134      135      175 </v>
   <v type="int" >       12      125      126      135      175 </v>
   <v type="int" >       12      125      134      174      175 </v>
   <v type="int" >       12      126      135      136      176 </v>
   <v type="int" >       12      126      127      136      176 </v>
   <v type="int" >       12      126      135      175      176 </v>
   <v type="int" >       12      127      136      137      177 </v>
   <v type="int" >       12      127      128      137      177 </v>
   <v type="int" >       12      127      136      176      177 </v>
   <v type="int" >       12      128      137      138      178 </v>
   <v type="int" >       12      128      129      138      178 </v>
   <v type="int" >       12      128      137      177      178 </v>
   <v type="int" >       12      129      138      139      179 </v>
   <v type="int" >       12      129      130      139      179 </v>
   <v type="int" >       12      129      138      178      179 </v>
   <v type="int" >       12      130      139      140      171 </v>
   <v type="int" >       12      130      131      140      171 </v>
   <v type="int" >       12      130      139      171      179 </v>
   <v type="int" >       12      132      133      141      180 </v>
   <v type="int" >       12      132      133      173      180 </v>
   <v type="int" >       12      132      172      173      180 </v>
   <v type="int" >       12      133      141      142      181 </v>
   <v type="int" >       12      133      134      142      181 </v>
   <v type="int" >       12      133      134      174      181 </v>
   <v type="int" >       12      133      141      180      181 </v>
   <v type="int" >       12      133      173      180      181 </v>
   <v type="int" >       12      133      173      174      181 </v>
   <v type="int" >       12      134      142      143      182 </v>
   <v type="int" >       12      134      135      143      182 </v>
   <v type="int" >       12      134      135      175      182 </v>
   <v type="int" >       12      134      142      181      182 </v>
   <v type="int" >       12      134      174      181      182 </v>
   <v type="int" >       12      134      174      175      182 </v>
   <v type="int" >       12      135      143      144      183 </v>
   <v type="int" >       12      135      136      144      183 </v>
   <v type="int" >       12      135      136      176      183 </v>
   <v type="int" >       12      135      143      182      183 </v>
   <v type="int" >       12      135      175      182      183 </v>
   <v type="int" >       12      135      175      176      183 </v>
   <v type="int" >       12      136      144      145      184 </v>
   <v type="int" >       12      136      137      145      184 </v>
   <v type="int" >       12      136      137      177      184 </v>
   <v type="int" >       12      136      144      183      184 </v>
   <v type="int" >       12      136      176      183      184 </v>
   <v type="int" >       12      136      176      177      184 </v>
   <v type="int" >       12      137      145      146      185 </v>
   <v type="int" >       12      137      138      146      185 </v>
   <v type="int" >       12      137      138      178      185 </v>
   <v type="int" >       12      137      145      184      185 </v>
   <v type="int" >       12      137      177      184      185 </v>
   <v type="int" >       12      137      177      178      185 </v>
   <v type="int" >       12      138      146      147      186 </v>
   <v type="int" >       12      138      139      147      186 </v>
   <v type="int" >       12      138      139      179      186 </v>
   <v type="int" >       12      138      146      185      186 </v>
   <v type="int" >       12      138      178      185      186 </v>
   <v type="int" >       12      138      178      179      186 </v>
   <v type="int" >       12      139      147      148      170 </v>
   <v type="int" >       12      139      140      148      170 </v>
   <v type="int" >       12      139      140      170      171 </v>
   <v type="int" >       12      139      147      170      186 </v>
   <v type="int" >       12      139      170      179      186 </v>
   <v type="int" >       12      139      170      171      179 </v>
   <v type="int" >       12      141      142      149      187 </v>
   <v type="int" >       12      141      142      181      187 </v>
   <v type="int" >       12      141      180      181      187 </v>
[...]
       <r>   11.0452    0.0000 </r>
       <r>   11.4491    0.0000 </r>
      </set>
      <set comment="kpoint 228">
       <r>   -7.2286    1.0000 </r>
       <r>   -6.9636    1.0000 </r>
       <r>   -5.1582    1.0000 </r>
       <r>   -4.1912    1.0000 </r>
       <r>   -2.9758    1.0000 </r>
       <r>    1.7911    1.0000 </r>
       <r>    2.3971    1.0000 </r>
       <r>    2.8348    1.0000 </r>
       <r>    3.3880    1.0000 </r>
       <r>    3.5125    1.0000 </r>
       <r>    3.8291    1.0000 </r>
       <r>    4.1324    1.0000 </r>
       <r>    4.3275    1.0000 </r>
       <r>    4.8782    1.0000 </r>
       <r>    6.5456    0.0000 </r>
       <r>    6.9942    0.0000 </r>
       <r>    7.5512    0.0000 </r>
       <r>    7.6491    0.0000 </r>
       <r>    8.2220    0.0000 </r>
       <r>    8.2716    0.0000 </r>
       <r>   10.0381    0.0000 </r>
       <r>   10.5504    0.0000 </r>
       <r>   10.9423    0.0000 </r>
       <r>   11.1128    0.0000 </r>
      </set>
      <set comment="kpoint 229">
       <r>   -7.3725    1.0000 </r>
       <r>   -7.0987    1.0000 </r>
       <r>   -5.2155    1.0000 </r>
       <r>   -4.1495    1.0000 </r>
       <r>   -2.7172    1.0000 </r>
       <r>    2.1730    1.0000 </r>
       <r>    2.9689    1.0000 </r>
       <r>    3.2186    1.0000 </r>
       <r>    3.2491    1.0000 </r>
       <r>    3.5137    1.0000 </r>
       <r>    3.6638    1.0000 </r>
       <r>    4.4357    1.0000 </r>
       <r>    4.7338    1.0000 </r>
       <r>    5.2703    1.0000 </r>
       <r>    6.0775    0.0000 </r>
       <r>    6.4690    0.0000 </r>
       <r>    7.1152    0.0000 </r>
       <r>    7.7410    0.0000 </r>
       <r>    7.9141    0.0000 </r>
       <r>    8.2331    0.0000 </r>
       <r>   10.1737    0.0000 </r>
       <r>   10.6988    0.0000 </r>
       <r>   10.9205    0.0000 </r>
       <r>   11.5009    0.0000 </r>
      </set>
      <set comment="kpoint 230">
       <r>   -7.5703    1.0000 </r>
       <r>   -7.2799    1.0000 </r>
       <r>   -5.3091    1.0000 </r>
       <r>   -4.1141    1.0000 </r>
       <r>   -2.3290    1.0000 </r>
       <r>    2.8890    1.0000 </r>
       <r>    3.6536    1.0000 </r>
       <r>    3.6536    1.0000 </r>
       <r>    3.9077    1.0000 </r>
       <r>    4.0529    1.0000 </r>
       <r>    4.0529    1.0000 </r>
       <r>    4.3657    1.0000 </r>
       <r>    4.3657    1.0000 </r>
       <r>    5.1120    1.0000 </r>
       <r>    6.2236    0.0000 </r>
       <r>    6.6160    0.0000 </r>
       <r>    6.6160    0.0000 </r>
       <r>    7.1611    0.0000 </r>
       <r>    7.1823    0.0000 </r>
       <r>    7.1823    0.0000 </r>
       <r>   10.3190    0.0000 </r>
       <r>   11.0254    0.0000 </r>
       <r>   11.0254    0.0000 </r>
       <r>   11.3432    0.0000 </r>
      </set>
      <set comment="kpoint 231">
       <r>   -7.5182    1.0000 </r>
       <r>   -7.2376    1.0000 </r>
       <r>   -5.2785    1.0000 </r>
       <r>   -4.1281    1.0000 </r>
       <r>   -2.4268    1.0000 </r>
       <r>    2.8856    1.0000 </r>
       <r>    3.0773    1.0000 </r>
       <r>    3.5809    1.0000 </r>
       <r>    3.6696    1.0000 </r>
       <r>    3.7530    1.0000 </r>
       <r>    3.8612    1.0000 </r>
       <r>    4.5940    1.0000 </r>
       <r>    4.7500    1.0000 </r>
       <r>    5.2954    1.0000 </r>
       <r>    6.2038    0.0000 </r>
       <r>    6.2451    0.0000 </r>
       <r>    6.5160    0.0000 </r>
       <r>    7.3635    0.0000 </r>
       <r>    7.4286    0.0000 </r>
       <r>    7.7877    0.0000 </r>
       <r>   10.3935    0.0000 </r>
       <r>   10.7277    0.0000 </r>
       <r>   11.1568    0.0000 </r>
       <r>   11.2664    0.0000 </r>
      </set>
     </set>
    </set>
   </array>
  </eigenvalues>
  <separator name="orbital magnetization" >
   <v name="MAGDIPOLOUT">      0.00000000      0.00000000      0.00000000</v>
  </separator>
  <dos>
   <i name="efermi">      5.54567624 </i>
   <total>
    <array>
     <dimension dim="1">gridpoints</dimension>
     <dimension dim="2">spin</dimension>
     <field>energy</field>
     <field>total</field>
     <field>integrated</field>
     <set>
      <set comment="spin 1">
       <r>    -9.6998     0.0000     0.0000 </r>
       <r>    -9.6142     0.0000     0.0000 </r>
       <r>    -9.5286     0.0000     0.0000 </r>
       <r>    -9.4429     0.0000     0.0000 </r>
       <r>    -9.3573     0.0000     0.0000 </r>
       <r>    -9.2717     0.0000     0.0000 </r>
       <r>    -9.1860     0.0000     0.0000 </r>
       <r>    -9.1004     0.0000     0.0000 </r>
       <r>    -9.0148     0.0000     0.0000 </r>
       <r>    -8.9291     0.0000     0.0000 </r>
       <r>    -8.8435     0.0000     0.0000 </r>
       <r>    -8.7579     0.0000     0.0000 </r>
       <r>    -8.6722     0.0000     0.0000 </r>
       <r>    -8.5866     0.0000     0.0000 </r>
       <r>    -8.5010     0.0000     0.0000 </r>
       <r>    -8.4153     0.0000     0.0000 </r>
       <r>    -8.3297     0.0000     0.0000 </r>
       <r>    -8.2441     0.0000     0.0000 </r>
       <r>    -8.1584     0.0000     0.0000 </r>
       <r>    -8.0728     0.0000     0.0000 </r>
       <r>    -7.9872     0.0000     0.0000 </r>
       <r>    -7.9015     0.0000     0.0000 </r>
       <r>    -7.8159     0.0000     0.0000 </r>
       <r>    -7.7303     0.0000     0.0000 </r>
       <r>    -7.6446     0.4163     0.0112 </r>
       <r>    -7.5590     0.8119     0.0604 </r>
       <r>    -7.4734     0.8696     0.1354 </r>
       <r>    -7.3877     0.8798     0.2108 </r>
       <r>    -7.3021     0.9009     0.2875 </r>
       <r>    -7.2165     1.1360     0.3735 </r>
       <r>    -7.1308     1.3877     0.4812 </r>
       <r>    -7.0452     1.6131     0.6093 </r>
       <r>    -6.9596     1.8747     0.7632 </r>
       <r>    -6.8739     1.9349     0.9270 </r>
       <r>    -6.7883     1.9822     1.0938 </r>
       <r>    -6.7027     2.0082     1.2654 </r>
       <r>    -6.6170     2.0466     1.4386 </r>
       <r>    -6.5314     2.1136     1.6168 </r>
       <r>    -6.4458     2.1801     1.8004 </r>
       <r>    -6.3601     2.2634     1.9906 </r>
       <r>    -6.2745     2.3729     2.1888 </r>
       <r>    -6.1889     2.5551     2.3990 </r>
       <r>    -6.1032     2.9994     2.6313 </r>
       <r>    -6.0176     3.1864     2.9016 </r>
       <r>    -5.9320     5.5707     3.2555 </r>
       <r>    -5.8463     2.3167     3.5034 </r>
       <r>    -5.7607     1.9225     3.6782 </r>
       <r>    -5.6751     1.5997     3.8312 </r>
       <r>    -5.5894     1.2290     3.9936 </r>
       <r>    -5.5038     1.6521     4.1063 </r>
       <r>    -5.4181     1.6507     4.2189 </r>
       <r>    -5.3325     4.2933     4.4558 </r>
       <r>    -5.2469     6.0077     4.9568 </r>
       <r>    -5.1612     5.9571     5.4800 </r>
       <r>    -5.0756     4.3047     5.9331 </r>
       <r>    -4.9900     1.0864     6.1031 </r>
       <r>    -4.9043     2.1813     6.2305 </r>
       <r>    -4.8187     2.4773     6.4339 </r>
       <r>    -4.7331     2.6987     6.6563 </r>
       <r>    -4.6474     2.5969     6.8953 </r>
       <r>    -4.5618     2.4261     7.1103 </r>
       <r>    -4.4762     2.4535     7.3159 </r>
       <r>    -4.3905     2.6783     7.5341 </r>
       <r>    -4.3049     3.3455     7.7923 </r>
       <r>    -4.2193     3.3599     8.0720 </r>
       <r>    -4.1336     3.3436     8.3540 </r>
       <r>    -4.0480     2.3779     8.5930 </r>
       <r>    -3.9624     1.9974     8.7799 </r>
       <r>    -3.8767     1.7397     8.9389 </r>
       <r>    -3.7911     1.4939     9.0769 </r>
       <r>    -3.7055     1.3372     9.1981 </r>
       <r>    -3.6198     1.1786     9.3056 </r>
       <r>    -3.5342     1.0517     9.4011 </r>
       <r>    -3.4486     0.9028     9.4852 </r>
       <r>    -3.3629     0.6780     9.5547 </r>
       <r>    -3.2773     0.6452     9.6103 </r>
       <r>    -3.1917     0.6258     9.6648 </r>
       <r>    -3.1060     0.5989     9.7173 </r>
       <r>    -3.0204     0.5996     9.7686 </r>
       <r>    -2.9348     0.5657     9.8187 </r>
       <r>    -2.8491     0.4925     9.8661 </r>
       <r>    -2.7635     0.3975     9.9036 </r>
       <r>    -2.6779     0.3330     9.9349 </r>
       <r>    -2.5922     0.2646     9.9607 </r>
       <r>    -2.5066     0.1930     9.9802 </r>
       <r>    -2.4210     0.1458     9.9945 </r>
       <r>    -2.3353     0.0041    10.0000 </r>
       <r>    -2.2497     0.0000    10.0000 </r>
       <r>    -2.1641     0.0000    10.0000 </r>
       <r>    -2.0784     0.0000    10.0000 </r>
       <r>    -1.9928     0.0000    10.0000 </r>
       <r>    -1.9072     0.0000    10.0000 </r>
       <r>    -1.8215     0.0000    10.0000 </r>
       <r>    -1.7359     0.0000    10.0000 </r>
       <r>    -1.6503     0.0000    10.0000 </r>
       <r>    -1.5646     0.0000    10.0000 </r>
       <r>    -1.4790     0.0000    10.0000 </r>
       <r>    -1.3934     0.0000    10.0000 </r>
       <r>    -1.3077     0.0000    10.0000 </r>
       <r>    -1.2221     0.0000    10.0000 </r>
       <r>    -1.1365     0.0000    10.0000 </r>
       <r>    -1.0508     0.0000    10.0000 </r>
       <r>    -0.9652     0.0000    10.0000 </r>
       <r>    -0.8795     0.0000    10.0000 </r>
       <r>    -0.7939     0.0000    10.0000 </r>
       <r>    -0.7083     0.0000    10.0000 </r>
       <r>    -0.6226     0.0000    10.0000 </r>
       <r>    -0.5370     0.0000    10.0000 </r>
       <r>    -0.4514     0.0000    10.0000 </r>
       <r>    -0.3657     0.0000    10.0000 </r>
       <r>    -0.2801     0.0000    10.0000 </r>
       <r>    -0.1945     0.0000    10.0000 </r>
       <r>    -0.1088     0.0000    10.0000 </r>
       <r>    -0.0232     0.0000    10.0000 </r>
       <r>     0.0624     0.0000    10.0000 </r>
       <r>     0.1481     0.0000    10.0000 </r>
       <r>     0.2337     0.0000    10.0000 </r>
       <r>     0.3193     0.0000    10.0000 </r>
       <r>     0.4050     0.0464    10.0001 </r>
       <r>     0.4906     0.8133    10.0460 </r>
       <r>     0.5762     1.1821    10.1351 </r>
       <r>     0.6619     1.4867    10.2489 </r>
       <r>     0.7475     2.0884    10.4002 </r>
       <r>     0.8331     2.3667    10.6102 </r>
       <r>     0.9188     2.3083    10.8115 </r>
       <r>     1.0044     1.8930    10.9917 </r>
       <r>     1.0900     1.9010    11.1397 </r>
       <r>     1.1757     1.9618    11.3101 </r>
       <r>     1.2613     1.9296    11.4768 </r>
       <r>     1.3469     3.1029    11.6753 </r>
       <r>     1.4326     3.4332    11.9286 </r>
       <r>     1.5182     3.1076    12.2202 </r>
       <r>     1.6038     3.5451    12.4891 </r>
       <r>     1.6895     3.7179    12.8053 </r>
       <r>     1.7751     4.2523    13.1432 </r>
       <r>     1.8607     4.3678    13.5367 </r>
       <r>     1.9464     4.1805    13.8964 </r>
       <r>     2.0320     4.3768    14.2588 </r>
       <r>     2.1176     4.4131    14.6400 </r>
       <r>     2.2033     5.2220    15.0371 </r>
       <r>     2.2889     5.2293    15.5019 </r>
       <r>     2.3745     5.2847    15.9337 </r>
       <r>     2.4602     4.9823    16.3456 </r>
       <r>     2.5458     4.2504    16.7372 </r>
       <r>     2.6314     5.4667    17.1380 </r>
       <r>     2.7171     5.0492    17.5831 </r>
       <r>     2.8027     4.8496    18.0079 </r>
       <r>     2.8883     5.6097    18.4291 </r>
       <r>     2.9740     4.7612    18.8501 </r>
       <r>     3.0596     4.3919    19.2444 </r>
       <r>     3.1452     4.1407    19.6048 </r>
       <r>     3.2309     4.1790    19.9625 </r>
       <r>     3.3165     4.2425    20.3241 </r>
       <r>     3.4022     3.7593    20.6682 </r>
       <r>     3.4878     3.3180    20.9677 </r>
       <r>     3.5734     3.5871    21.2625 </r>
       <r>     3.6591     3.0664    21.5517 </r>
       <r>     3.7447     3.1176    21.8135 </r>
       <r>     3.8303     4.3761    22.1019 </r>
       <r>     3.9160     4.5372    22.4580 </r>
       <r>     4.0016     4.5786    22.8481 </r>
       <r>     4.0872     3.8635    23.2063 </r>
       <r>     4.1729     3.6593    23.5224 </r>
       <r>     4.2585     4.4152    23.8649 </r>
       <r>     4.3441     4.7317    24.2526 </r>
       <r>     4.4298     5.2226    24.6794 </r>
       <r>     4.5154     5.5105    25.1408 </r>
       <r>     4.6010     5.0748    25.5947 </r>
       <r>     4.6867     5.0882    26.0337 </r>
       <r>     4.7723     5.6504    26.4945 </r>
       <r>     4.8579     5.6378    26.9879 </r>
       <r>     4.9436     4.8203    27.4491 </r>
       <r>     5.0292     2.6814    27.7238 </r>
       <r>     5.1148     1.0758    27.8934 </r>
       <r>     5.2005     0.5415    27.9569 </r>
       <r>     5.2861     0.2455    27.9902 </r>
       <r>     5.3717     0.0169    27.9996 </r>
       <r>     5.4574     0.0004    28.0000 </r>
       <r>     5.5430     0.0000    28.0000 </r>
       <r>     5.6286     0.0000    28.0000 </r>
       <r>     5.7143     0.0000    28.0000 </r>
       <r>     5.7999     0.0033    28.0001 </r>
       <r>     5.8855     0.0139    28.0008 </r>
       <r>     5.9712     0.0436    28.0029 </r>
       <r>     6.0568     0.1648    28.0120 </r>
       <r>     6.1424     0.5198    28.0364 </r>
       <r>     6.2281     0.9055    28.0995 </r>
       <r>     6.3137     1.7217    28.2128 </r>
       <r>     6.3993     2.3586    28.3859 </r>
       <r>     6.4850     3.7286    28.6662 </r>
       <r>     6.5706     4.4596    29.0256 </r>
       <r>     6.6562     4.4822    29.4045 </r>
       <r>     6.7419     5.1118    29.8248 </r>
       <r>     6.8275     5.1459    30.2881 </r>
       <r>     6.9131     5.1013    30.7242 </r>
       <r>     6.9988     4.5269    31.1411 </r>
       <r>     7.0844     4.1765    31.5117 </r>
       <r>     7.1700     4.1579    31.8644 </r>
       <r>     7.2557     4.0221    32.2245 </r>
       <r>     7.3413     3.9973    32.5566 </r>
       <r>     7.4269     3.3936    32.8790 </r>
       <r>     7.5126     3.5678    33.1770 </r>
       <r>     7.5982     3.3881    33.4819 </r>
       <r>     7.6838     3.6237    33.7661 </r>
       <r>     7.7695     2.8540    34.0230 </r>
       <r>     7.8551     2.9327    34.2732 </r>
       <r>     7.9408     3.4047    34.5412 </r>
       <r>     8.0264     2.9874    34.8085 </r>
       <r>     8.1120     3.3590    35.0781 </r>
       <r>     8.1977     4.1706    35.3938 </r>
       <r>     8.2833     3.9761    35.7393 </r>
       <r>     8.3689     3.5655    36.0801 </r>
       <r>     8.4546     2.7155    36.3520 </r>
       <r>     8.5402     2.8401    36.5887 </r>
       <r>     8.6258     3.2258    36.8479 </r>
       <r>     8.7115     3.2909    37.1286 </r>
       <r>     8.7971     3.7110    37.4189 </r>
       <r>     8.8827     3.8256    37.7500 </r>
       <r>     8.9684     3.0990    38.0487 </r>
       <r>     9.0540     3.6481    38.3288 </r>
       <r>     9.1396     3.9675    38.6808 </r>
       <r>     9.2253     3.8726    39.0198 </r>
       <r>     9.3109     3.6802    39.3388 </r>
       <r>     9.3965     3.1415    39.6206 </r>
       <r>     9.4822     3.0031    39.8814 </r>
       <r>     9.5678     2.8672    40.1347 </r>
       <r>     9.6534     3.1841    40.3895 </r>
       <r>     9.7391     2.7464    40.6383 </r>
       <r>     9.8247     2.5339    40.8633 </r>
       <r>     9.9103     2.3058    41.0722 </r>
       <r>     9.9960     2.1876    41.2616 </r>
       <r>    10.0816     2.3617    41.4518 </r>
       <r>    10.1672     1.9568    41.6430 </r>
       <r>    10.2529     2.7278    41.8250 </r>
       <r>    10.3385     4.7679    42.1382 </r>
       <r>    10.4241     3.5013    42.5145 </r>
       <r>    10.5098     2.7594    42.7767 </r>
       <r>    10.5954     2.4962    43.0036 </r>
       <r>    10.6810     2.5677    43.2163 </r>
       <r>    10.7667     1.9417    43.4044 </r>
       <r>    10.8523     1.6907    43.5595 </r>
       <r>    10.9379     2.1088    43.7119 </r>
       <r>    11.0236     2.6106    43.9216 </r>
       <r>    11.1092     2.9595    44.1413 </r>
       <r>    11.1948     2.5698    44.3788 </r>
       <r>    11.2805     2.6041    44.6071 </r>
       <r>    11.3661     2.6188    44.8267 </r>
       <r>    11.4517     2.7533    45.0588 </r>
       <r>    11.5374     2.3031    45.2736 </r>
       <r>    11.6230     2.2100    45.4657 </r>
       <r>    11.7086     2.2138    45.6554 </r>
       <r>    11.7943     2.4054    45.8498 </r>
       <r>    11.8799     2.2531    46.0535 </r>
       <r>    11.9655     1.8850    46.2298 </r>
       <r>    12.0512     2.1033    46.4006 </r>
       <r>    12.1368     2.0694    46.5814 </r>
       <r>    12.2225     1.8668    46.7523 </r>
       <r>    12.3081     1.7486    46.9070 </r>
       <r>    12.3937     1.5669    47.0495 </r>
       <r>    12.4794     1.2969    47.1718 </r>
       <r>    12.5650     1.0614    47.2718 </r>
       <r>    12.6506     0.9093    47.3557 </r>
       <r>    12.7363     0.8036    47.4289 </r>
       <r>    12.8219     0.7207    47.4938 </r>
       <r>    12.9075     0.6659    47.5531 </r>
       <r>    12.9932     0.6225    47.6082 </r>
       <r>    13.0788     0.5802    47.6598 </r>
       <r>    13.1644     0.5331    47.7073 </r>
       <r>    13.2501     0.5327    47.7530 </r>
       <r>    13.3357     0.4706    47.7968 </r>
       <r>    13.4213     0.4471    47.8357 </r>
       <r>    13.5070     0.4319    47.8733 </r>
       <r>    13.5926     0.4898    47.9122 </r>
       <r>    13.6782     0.3250    47.9489 </r>
       <r>    13.7639     0.2214    47.9719 </r>
       <r>    13.8495     0.1565    47.9882 </r>
       <r>    13.9351     0.0736    47.9982 </r>
       <r>    14.0208     0.0000    48.0000 </r>
       <r>    14.1064     0.0000    48.0000 </r>
       <r>    14.1920     0.0000    48.0000 </r>
       <r>    14.2777     0.0000    48.0000 </r>
       <r>    14.3633     0.0000    48.0000 </r>
       <r>    14.4489     0.0000    48.0000 </r>
       <r>    14.5346     0.0000    48.0000 </r>
       <r>    14.6202     0.0000    48.0000 </r>
       <r>    14.7058     0.0000    48.0000 </r>
       <r>    14.7915     0.0000    48.0000 </r>
       <r>    14.8771     0.0000    48.0000 </r>
       <r>    14.9627     0.0000    48.0000 </r>
       <r>    15.0484     0.0000    48.0000 </r>
       <r>    15.1340     0.0000    48.0000 </r>
       <r>    15.2196     0.0000    48.0000 </r>
       <r>    15.3053     0.0000    48.0000 </r>
       <r>    15.3909     0.0000    48.0000 </r>
       <r>    15.4765     0.0000    48.0000 </r>
       <r>    15.5622     0.0000    48.0000 </r>
       <r>    15.6478     0.0000    48.0000 </r>
       <r>    15.7334     0.0000    48.0000 </r>
       <r>    15.8191     0.0000    48.0000 </r>
       <r>    15.9047     0.0000    48.0000 </r>
       <r>    15.9903     0.0000    48.0000 </r>
      </set>
     </set>
    </array>
   </total>
  </dos>
 </calculation>
 <structure name="finalpos" >
  <crystal>
   <varray name="basis" >
    <v>      10.22228271      -2.21667734       0.00000000 </v>
    <v>      10.22228271       2.21667734       0.00000000 </v>
    <v>       9.74160157       0.00000000       3.80918902 </v>
   </varray>
   <i name="volume">    172.62865577 </i>
   <varray name="rec_basis" >
    <v>       0.04891275      -0.22556282      -0.12508924 </v>
    <v>       0.04891275       0.22556282      -0.12508924 </v>
    <v>      -0.00000000       0.00000000       0.26252307 </v>
   </varray>
  </crystal>
  <varray name="positions" >
   <v>       0.60020167       0.60020167       0.60020167 </v>
   <v>       0.39979833       0.39979833       0.39979833 </v>
   <v>       0.00000000       0.00000000       0.00000000 </v>
   <v>       0.78951418       0.78951418       0.78951418 </v>
   <v>       0.21048582       0.21048582       0.21048582 </v>
  </varray>
 </structure>
</modeling>
