 vasp.5.4.4.18Apr17-6-g9f103f2a35 (build Mar 20 2018 18:01:20) complex           
 executed on             LinuxGNU date 2020.04.23  22:40:43
 running on    8 total cores
 distrk:  each k-point on    8 cores,    1 groups
 distr:  one band on NCORES_PER_BAND=   1 cores,    8 groups


--------------------------------------------------------------------------------------------------------


 INCAR:
 POTCAR:    PAW_PBE Sn_d 06Sep2000                
 POTCAR:    PAW_PBE Se 06Sep2000                  

 ----------------------------------------------------------------------------- 
|                                                                             |
|           W    W    AA    RRRRR   N    N  II  N    N   GGGG   !!!           |
|           W    W   A  A   R    R  NN   N  II  NN   N  G    G  !!!           |
|           W    W  A    A  R    R  N N  N  II  N N  N  G       !!!           |
|           W WW W  AAAAAA  RRRRR   N  N N  II  N  N N  G  GGG   !            |
|           WW  WW  A    A  R   R   N   NN  II  N   NN  G    G                |
|           W    W  A    A  R    R  N    N  II  N    N   GGGG   !!!           |
|                                                                             |
|      For optimal performance we recommend to set                            |
|        NCORE= 4 - approx SQRT( number of cores)                             |
|      NCORE specifies how many cores store one orbital (NPAR=cpu/NCORE).     |
|      This setting can  greatly improve the performance of VASP for DFT.     |
|      The default,   NCORE=1            might be grossly inefficient         |
|      on modern multi-core architectures or massively parallel machines.     |
|      Do your own testing !!!!                                               |
|      Unfortunately you need to use the default for GW and RPA calculations. |
|      (for HF NCORE is supported but not extensively tested yet)             |
|                                                                             |
 ----------------------------------------------------------------------------- 

 POTCAR:    PAW_PBE Sn_d 06Sep2000                
   VRHFIN =Sn: s2p2                                                             
   LEXCH  = PE                                                                  
   EATOM  =  1893.1092 eV,  139.1396 Ry                                         
                                                                                
   TITEL  = PAW_PBE Sn_d 06Sep2000                                              
   LULTRA =        F    use ultrasoft PP ?                                      
   IUNSCR =        1    unscreen: 0-lin 1-nonlin 2-no                           
   RPACOR =    2.300    partial core radius                                     
   POMASS =  118.710; ZVAL   =   14.000    mass and valenz                      
   RCORE  =    2.500    outmost cutoff radius                                   
   RWIGS  =    2.960; RWIGS  =    1.566    wigner-seitz radius (au A)           
   ENMAX  =  241.083; ENMIN  =  180.812 eV                                      
   ICORE  =        3    local potential                                         
   LCOR   =        T    correct aug charges                                     
   LPAW   =        T    paw PP                                                  
   EAUG   =  439.825                                                            
   DEXC   =    0.000                                                            
   RMAX   =    2.560    core radius for proj-oper                               
   RAUG   =    1.300    factor for augmentation sphere                          
   RDEP   =    2.659    radius for radial grids                                 
   RDEPT  =    2.046    core radius for aug-charge                              
                                                                                
   Atomic configuration                                                         
   12 entries                                                                   
     n  l   j            E        occ.                                          
     1  0  0.50    -29007.2859   2.0000                                         
     2  0  0.50     -4378.8056   2.0000                                         
     2  1  1.50     -3930.4293   6.0000                                         
     3  0  0.50      -845.0264   2.0000                                         
     3  1  1.50      -698.5725   6.0000                                         
     3  2  2.50      -473.2839  10.0000                                         
     4  0  0.50      -133.9036   2.0000                                         
     4  1  1.50       -89.6752   6.0000                                         
     4  2  2.50       -25.8375  10.0000                                         
     5  0  0.50       -10.5484   2.0000                                         
     5  1  0.50        -3.6940   2.0000                                         
     4  3  2.50        -2.7416   0.0000                                         
   Description                                                                  
     l       E           TYP  RCUT    TYP  RCUT                                 
     2    -25.8374624     23  2.500                                             
     2     -5.4423304     23  2.500                                             
     0    -10.5483727     23  2.500                                             
     0     13.6058260     23  2.500                                             
     1     -3.6939829     23  2.500                                             
     1      1.9821976     23  2.500                                             
     3     -1.3605826      7  2.500                                             
  local pseudopotential read in
  partial core-charges read in
  partial kinetic energy density read in
  atomic valenz-charges read in
  non local Contribution for L=           2  read in
    real space projection operators read in
  non local Contribution for L=           2  read in
    real space projection operators read in
  non local Contribution for L=           0  read in
    real space projection operators read in
  non local Contribution for L=           0  read in
    real space projection operators read in
  non local Contribution for L=           1  read in
    real space projection operators read in
  non local Contribution for L=           1  read in
    real space projection operators read in
    PAW grid and wavefunctions read in

   number of l-projection  operators is LMAX  =           6
   number of lm-projection operators is LMMAX =          18

 POTCAR:    PAW_PBE Se 06Sep2000                  
   VRHFIN =Se: s2p4                                                             
   LEXCH  = PE                                                                  
   EATOM  =   257.1286 eV,   18.8984 Ry                                         
                                                                                
   TITEL  = PAW_PBE Se 06Sep2000                                                
   LULTRA =        F    use ultrasoft PP ?                                      
   IUNSCR =        1    unscreen: 0-lin 1-nonlin 2-no                           
   RPACOR =    1.900    partial core radius                                     
   POMASS =   78.960; ZVAL   =    6.000    mass and valenz                      
   RCORE  =    2.100    outmost cutoff radius                                   
   RWIGS  =    2.200; RWIGS  =    1.164    wigner-seitz radius (au A)           
   ENMAX  =  211.555; ENMIN  =  158.666 eV                                      
   ICORE  =        3    local potential                                         
   LCOR   =        T    correct aug charges                                     
   LPAW   =        T    paw PP                                                  
   EAUG   =  446.842                                                            
   DEXC   =    0.000                                                            
   RMAX   =    2.147    core radius for proj-oper                               
   RAUG   =    1.300    factor for augmentation sphere                          
   RDEP   =    2.177    radius for radial grids                                 
   RDEPT  =    1.928    core radius for aug-charge                              
                                                                                
   Atomic configuration                                                         
   10 entries                                                                   
     n  l   j            E        occ.                                          
     1  0  0.50    -12503.4787   2.0000                                         
     2  0  0.50     -1606.9547   2.0000                                         
     2  1  1.50     -1413.3140   6.0000                                         
     3  0  0.50      -213.4885   2.0000                                         
     3  1  1.50      -152.9538   6.0000                                         
     3  2  2.50       -53.1221  10.0000                                         
     4  0  0.50       -17.2865   2.0000                                         
     4  1  0.50        -6.5110   4.0000                                         
     4  2  2.50        -6.8029   0.0000                                         
     4  3  2.50        -6.8029   0.0000                                         
   Description                                                                  
     l       E           TYP  RCUT    TYP  RCUT                                 
     0    -17.2865377     23  2.100                                             
     0    -15.3094411     23  2.100                                             
     1     -6.5110275     23  2.100                                             
     1     -0.0695192     23  2.100                                             
     2     -6.8029130     23  2.100                                             
     3     -1.3605826      7  2.100                                             
  local pseudopotential read in
  partial core-charges read in
  partial kinetic energy density read in
  atomic valenz-charges read in
  non local Contribution for L=           0  read in
    real space projection operators read in
  non local Contribution for L=           0  read in
    real space projection operators read in
  non local Contribution for L=           1  read in
    real space projection operators read in
  non local Contribution for L=           1  read in
    real space projection operators read in
  non local Contribution for L=           2  read in
    real space projection operators read in
    PAW grid and wavefunctions read in

   number of l-projection  operators is LMAX  =           5
   number of lm-projection operators is LMMAX =          13

  PAW_PBE Sn_d 06Sep2000                :
 energy of atom  1       EATOM=-1893.1092
 kinetic energy error for atom=    0.0010 (will be added to EATOM!!)
  PAW_PBE Se 06Sep2000                  :
 energy of atom  2       EATOM= -257.1286
 kinetic energy error for atom=    0.0006 (will be added to EATOM!!)


 POSCAR: Sn2 Se2                                 
  positions in direct lattice
  No initial velocities read in
 exchange correlation table for  LEXCH =        8
   RHO(1)=    0.500       N(1)  =     2000
   RHO(2)=  100.500       N(2)  =     4000



--------------------------------------------------------------------------------------------------------


 ion  position               nearest neighbor table
   1  0.375  0.625  0.250-   3 2.74   4 3.02   4 3.02   4 3.02   4 3.02   2 3.64   2 3.64
   2  0.625  0.375  0.750-   4 2.74   3 3.02   3 3.02   3 3.02   3 3.02   1 3.64   1 3.64
   3  0.143  0.857  0.250-   1 2.74   2 3.02   2 3.02   2 3.02   2 3.02
   4  0.857  0.143  0.750-   2 2.74   1 3.02   1 3.02   1 3.02   1 3.02

  LATTYP: Found a base centered orthorhombic cell.
 ALAT       =     4.2710480100
 B/A-ratio  =     2.7666134242
 C/A-ratio  =     0.9944615397
  
  Lattice vectors:
  
 A1 = (   2.1355240050,  -5.9081693800,  -0.0000000000)
 A2 = (   2.1355240050,   5.9081693800,   0.0000000000)
 A3 = (   0.0000000000,   0.0000000000,   4.2473929800)


Analysis of symmetry for initial positions (statically):
=====================================================================
 Subroutine PRICEL returns:
 Original cell was already a primitive cell.
 

 Routine SETGRP: Setting up the symmetry group for a 
 base centered orthorhombic supercell.


 Subroutine GETGRP returns: Found  8 space group operations
 (whereof  4 operations were pure point group operations)
 out of a pool of  8 trial point group operations.


The static configuration has the point symmetry C_2h.
 The point group associated with its full space group is D_2h.


Analysis of symmetry for dynamics (positions and initial velocities):
=====================================================================
 Subroutine PRICEL returns:
 Original cell was already a primitive cell.
 

 Routine SETGRP: Setting up the symmetry group for a 
 base centered orthorhombic supercell.


 Subroutine GETGRP returns: Found  8 space group operations
 (whereof  4 operations were pure point group operations)
 out of a pool of  8 trial point group operations.


The dynamic configuration has the point symmetry C_2h.
 The point group associated with its full space group is D_2h.


 Subroutine INISYM returns: Found  8 space group operations
 (whereof  4 operations are pure point group operations),
 and found     1 'primitive' translations



 KPOINTS: Kpoints with grid resolution = 0.030 / A

Automatic generation of k-mesh.
Space group operators:
 irot       det(A)        alpha          n_x          n_y          n_z        tau_x        tau_y        tau_z
    1     1.000000     0.000000     1.000000     0.000000     0.000000     0.000000     0.000000     0.000000
    2    -1.000000     0.000000     1.000000     0.000000     0.000000     0.000000     0.000000     0.000000
    3     1.000000   180.000000     1.000000    -0.000000     0.000000     0.000000     0.000000     0.000000
    4    -1.000000   180.000000     1.000000    -0.000000     0.000000     0.000000     0.000000     0.000000
    5     1.000000   180.000000    -0.000000    -0.000000     1.000000     0.000000     0.000000     0.500000
    6    -1.000000   180.000000    -0.000000    -0.000000     1.000000     0.000000     0.000000     0.500000
    7     1.000000   180.000000     0.000000     1.000000     0.000000     0.000000     0.000000     0.500000
    8    -1.000000   180.000000     0.000000     1.000000     0.000000     0.000000     0.000000     0.500000
 
 Subroutine IBZKPT returns following result:
 ===========================================
 
 Found    105 irreducible k-points:
 
 Following reciprocal coordinates:
            Coordinates               Weight
  0.000000  0.000000  0.000000      1.000000
  0.125000  0.000000  0.000000      4.000000
  0.250000  0.000000  0.000000      4.000000
  0.375000  0.000000  0.000000      4.000000
  0.500000  0.000000  0.000000      2.000000
  0.125000  0.125000  0.000000      2.000000
  0.250000  0.125000  0.000000      4.000000
  0.375000  0.125000  0.000000      4.000000
  0.500000  0.125000  0.000000      4.000000
 -0.375000  0.125000  0.000000      4.000000
 -0.250000  0.125000  0.000000      4.000000
 -0.125000  0.125000  0.000000      2.000000
  0.250000  0.250000  0.000000      2.000000
  0.375000  0.250000  0.000000      4.000000
  0.500000  0.250000  0.000000      4.000000
 -0.375000  0.250000  0.000000      4.000000
 -0.250000  0.250000  0.000000      2.000000
  0.375000  0.375000  0.000000      2.000000
  0.500000  0.375000  0.000000      4.000000
 -0.375000  0.375000  0.000000      2.000000
  0.500000  0.500000  0.000000      1.000000
  0.000000  0.000000  0.125000      2.000000
  0.125000  0.000000  0.125000      8.000000
  0.250000  0.000000  0.125000      8.000000
  0.375000  0.000000  0.125000      8.000000
  0.500000  0.000000  0.125000      4.000000
  0.125000  0.125000  0.125000      4.000000
  0.250000  0.125000  0.125000      8.000000
  0.375000  0.125000  0.125000      8.000000
  0.500000  0.125000  0.125000      8.000000
 -0.375000  0.125000  0.125000      8.000000
 -0.250000  0.125000  0.125000      8.000000
 -0.125000  0.125000  0.125000      4.000000
  0.250000  0.250000  0.125000      4.000000
  0.375000  0.250000  0.125000      8.000000
  0.500000  0.250000  0.125000      8.000000
 -0.375000  0.250000  0.125000      8.000000
 -0.250000  0.250000  0.125000      4.000000
  0.375000  0.375000  0.125000      4.000000
  0.500000  0.375000  0.125000      8.000000
 -0.375000  0.375000  0.125000      4.000000
  0.500000  0.500000  0.125000      2.000000
  0.000000  0.000000  0.250000      2.000000
  0.125000  0.000000  0.250000      8.000000
  0.250000  0.000000  0.250000      8.000000
  0.375000  0.000000  0.250000      8.000000
  0.500000  0.000000  0.250000      4.000000
  0.125000  0.125000  0.250000      4.000000
  0.250000  0.125000  0.250000      8.000000
  0.375000  0.125000  0.250000      8.000000
  0.500000  0.125000  0.250000      8.000000
 -0.375000  0.125000  0.250000      8.000000
 -0.250000  0.125000  0.250000      8.000000
 -0.125000  0.125000  0.250000      4.000000
  0.250000  0.250000  0.250000      4.000000
  0.375000  0.250000  0.250000      8.000000
  0.500000  0.250000  0.250000      8.000000
 -0.375000  0.250000  0.250000      8.000000
 -0.250000  0.250000  0.250000      4.000000
  0.375000  0.375000  0.250000      4.000000
  0.500000  0.375000  0.250000      8.000000
 -0.375000  0.375000  0.250000      4.000000
  0.500000  0.500000  0.250000      2.000000
  0.000000  0.000000  0.375000      2.000000
  0.125000  0.000000  0.375000      8.000000
  0.250000  0.000000  0.375000      8.000000
  0.375000  0.000000  0.375000      8.000000
  0.500000  0.000000  0.375000      4.000000
  0.125000  0.125000  0.375000      4.000000
  0.250000  0.125000  0.375000      8.000000
  0.375000  0.125000  0.375000      8.000000
  0.500000  0.125000  0.375000      8.000000
 -0.375000  0.125000  0.375000      8.000000
 -0.250000  0.125000  0.375000      8.000000
 -0.125000  0.125000  0.375000      4.000000
  0.250000  0.250000  0.375000      4.000000
  0.375000  0.250000  0.375000      8.000000
  0.500000  0.250000  0.375000      8.000000
 -0.375000  0.250000  0.375000      8.000000
 -0.250000  0.250000  0.375000      4.000000
  0.375000  0.375000  0.375000      4.000000
  0.500000  0.375000  0.375000      8.000000
 -0.375000  0.375000  0.375000      4.000000
  0.500000  0.500000  0.375000      2.000000
  0.000000  0.000000  0.500000      1.000000
  0.125000  0.000000  0.500000      4.000000
  0.250000  0.000000  0.500000      4.000000
  0.375000  0.000000  0.500000      4.000000
  0.500000  0.000000  0.500000      2.000000
  0.125000  0.125000  0.500000      2.000000
  0.250000  0.125000  0.500000      4.000000
  0.375000  0.125000  0.500000      4.000000
  0.500000  0.125000  0.500000      4.000000
 -0.375000  0.125000  0.500000      4.000000
 -0.250000  0.125000  0.500000      4.000000
 -0.125000  0.125000  0.500000      2.000000
  0.250000  0.250000  0.500000      2.000000
  0.375000  0.250000  0.500000      4.000000
  0.500000  0.250000  0.500000      4.000000
 -0.375000  0.250000  0.500000      4.000000
 -0.250000  0.250000  0.500000      2.000000
  0.375000  0.375000  0.500000      2.000000
  0.500000  0.375000  0.500000      4.000000
 -0.375000  0.375000  0.500000      2.000000
  0.500000  0.500000  0.500000      1.000000
 
 Following cartesian coordinates:
            Coordinates               Weight
  0.000000 -0.000000  0.000000      1.000000
  0.029267 -0.010579  0.000000      4.000000
  0.058534 -0.021157  0.000000      4.000000
  0.087800 -0.031736  0.000000      4.000000
  0.117067 -0.042314  0.000000      2.000000
  0.058534 -0.000000  0.000000      2.000000
  0.087800 -0.010579  0.000000      4.000000
  0.117067 -0.021157  0.000000      4.000000
  0.146334 -0.031736  0.000000      4.000000
 -0.058534  0.042314  0.000000      4.000000
 -0.029267  0.031736  0.000000      4.000000
  0.000000  0.021157  0.000000      2.000000
  0.117067 -0.000000  0.000000      2.000000
  0.146334 -0.010579  0.000000      4.000000
  0.175601 -0.021157  0.000000      4.000000
 -0.029267  0.052893  0.000000      4.000000
  0.000000  0.042314  0.000000      2.000000
  0.175601 -0.000000  0.000000      2.000000
  0.204868 -0.010579  0.000000      4.000000
  0.000000  0.063471  0.000000      2.000000
  0.234135 -0.000000  0.000000      1.000000
  0.000000 -0.000000  0.029430      2.000000
  0.029267 -0.010579  0.029430      8.000000
  0.058534 -0.021157  0.029430      8.000000
  0.087800 -0.031736  0.029430      8.000000
  0.117067 -0.042314  0.029430      4.000000
  0.058534 -0.000000  0.029430      4.000000
  0.087800 -0.010579  0.029430      8.000000
  0.117067 -0.021157  0.029430      8.000000
  0.146334 -0.031736  0.029430      8.000000
 -0.058534  0.042314  0.029430      8.000000
 -0.029267  0.031736  0.029430      8.000000
  0.000000  0.021157  0.029430      4.000000
  0.117067 -0.000000  0.029430      4.000000
  0.146334 -0.010579  0.029430      8.000000
  0.175601 -0.021157  0.029430      8.000000
 -0.029267  0.052893  0.029430      8.000000
  0.000000  0.042314  0.029430      4.000000
  0.175601 -0.000000  0.029430      4.000000
  0.204868 -0.010579  0.029430      8.000000
  0.000000  0.063471  0.029430      4.000000
  0.234135 -0.000000  0.029430      2.000000
  0.000000 -0.000000  0.058860      2.000000
  0.029267 -0.010579  0.058860      8.000000
  0.058534 -0.021157  0.058860      8.000000
  0.087800 -0.031736  0.058860      8.000000
  0.117067 -0.042314  0.058860      4.000000
  0.058534 -0.000000  0.058860      4.000000
  0.087800 -0.010579  0.058860      8.000000
  0.117067 -0.021157  0.058860      8.000000
  0.146334 -0.031736  0.058860      8.000000
 -0.058534  0.042314  0.058860      8.000000
 -0.029267  0.031736  0.058860      8.000000
  0.000000  0.021157  0.058860      4.000000
  0.117067 -0.000000  0.058860      4.000000
  0.146334 -0.010579  0.058860      8.000000
  0.175601 -0.021157  0.058860      8.000000
 -0.029267  0.052893  0.058860      8.000000
  0.000000  0.042314  0.058860      4.000000
  0.175601 -0.000000  0.058860      4.000000
  0.204868 -0.010579  0.058860      8.000000
  0.000000  0.063471  0.058860      4.000000
  0.234135 -0.000000  0.058860      2.000000
  0.000000 -0.000000  0.088289      2.000000
  0.029267 -0.010579  0.088289      8.000000
  0.058534 -0.021157  0.088289      8.000000
  0.087800 -0.031736  0.088289      8.000000
  0.117067 -0.042314  0.088289      4.000000
  0.058534 -0.000000  0.088289      4.000000
  0.087800 -0.010579  0.088289      8.000000
  0.117067 -0.021157  0.088289      8.000000
  0.146334 -0.031736  0.088289      8.000000
 -0.058534  0.042314  0.088289      8.000000
 -0.029267  0.031736  0.088289      8.000000
  0.000000  0.021157  0.088289      4.000000
  0.117067 -0.000000  0.088289      4.000000
  0.146334 -0.010579  0.088289      8.000000
  0.175601 -0.021157  0.088289      8.000000
 -0.029267  0.052893  0.088289      8.000000
  0.000000  0.042314  0.088289      4.000000
  0.175601 -0.000000  0.088289      4.000000
  0.204868 -0.010579  0.088289      8.000000
  0.000000  0.063471  0.088289      4.000000
  0.234135 -0.000000  0.088289      2.000000
  0.000000 -0.000000  0.117719      1.000000
  0.029267 -0.010579  0.117719      4.000000
  0.058534 -0.021157  0.117719      4.000000
  0.087800 -0.031736  0.117719      4.000000
  0.117067 -0.042314  0.117719      2.000000
  0.058534 -0.000000  0.117719      2.000000
  0.087800 -0.010579  0.117719      4.000000
  0.117067 -0.021157  0.117719      4.000000
  0.146334 -0.031736  0.117719      4.000000
 -0.058534  0.042314  0.117719      4.000000
 -0.029267  0.031736  0.117719      4.000000
  0.000000  0.021157  0.117719      2.000000
  0.117067 -0.000000  0.117719      2.000000
  0.146334 -0.010579  0.117719      4.000000
  0.175601 -0.021157  0.117719      4.000000
 -0.029267  0.052893  0.117719      4.000000
  0.000000  0.042314  0.117719      2.000000
  0.175601 -0.000000  0.117719      2.000000
  0.204868 -0.010579  0.117719      4.000000
  0.000000  0.063471  0.117719      2.000000
  0.234135 -0.000000  0.117719      1.000000
 
 TETIRR: Found    768 inequivalent tetrahedra from     3072
 
 Subroutine IBZKPT_HF returns following result:
 ==============================================
 
 Found    512 k-points in 1st BZ
 the following    512 k-points will be used (e.g. in the exchange kernel)
 Following reciprocal coordinates:   # in IRBZ
  0.000000  0.000000  0.000000    0.00195312   1 t-inv F
  0.125000  0.000000  0.000000    0.00195312   2 t-inv F
  0.250000  0.000000  0.000000    0.00195312   3 t-inv F
  0.375000  0.000000  0.000000    0.00195312   4 t-inv F
  0.500000  0.000000  0.000000    0.00195312   5 t-inv F
  0.125000  0.125000  0.000000    0.00195312   6 t-inv F
  0.250000  0.125000  0.000000    0.00195312   7 t-inv F
  0.375000  0.125000  0.000000    0.00195312   8 t-inv F
  0.500000  0.125000  0.000000    0.00195312   9 t-inv F
 -0.375000  0.125000  0.000000    0.00195312  10 t-inv F
 -0.250000  0.125000  0.000000    0.00195312  11 t-inv F
 -0.125000  0.125000  0.000000    0.00195312  12 t-inv F
  0.250000  0.250000  0.000000    0.00195312  13 t-inv F
  0.375000  0.250000  0.000000    0.00195312  14 t-inv F
  0.500000  0.250000  0.000000    0.00195312  15 t-inv F
 -0.375000  0.250000  0.000000    0.00195312  16 t-inv F
 -0.250000  0.250000  0.000000    0.00195312  17 t-inv F
  0.375000  0.375000  0.000000    0.00195312  18 t-inv F
  0.500000  0.375000  0.000000    0.00195312  19 t-inv F
 -0.375000  0.375000  0.000000    0.00195312  20 t-inv F
  0.500000  0.500000  0.000000    0.00195312  21 t-inv F
  0.000000  0.000000  0.125000    0.00195312  22 t-inv F
  0.125000  0.000000  0.125000    0.00195312  23 t-inv F
  0.250000  0.000000  0.125000    0.00195312  24 t-inv F
  0.375000  0.000000  0.125000    0.00195312  25 t-inv F
  0.500000  0.000000  0.125000    0.00195312  26 t-inv F
  0.125000  0.125000  0.125000    0.00195312  27 t-inv F
  0.250000  0.125000  0.125000    0.00195312  28 t-inv F
  0.375000  0.125000  0.125000    0.00195312  29 t-inv F
  0.500000  0.125000  0.125000    0.00195312  30 t-inv F
 -0.375000  0.125000  0.125000    0.00195312  31 t-inv F
 -0.250000  0.125000  0.125000    0.00195312  32 t-inv F
 -0.125000  0.125000  0.125000    0.00195312  33 t-inv F
  0.250000  0.250000  0.125000    0.00195312  34 t-inv F
  0.375000  0.250000  0.125000    0.00195312  35 t-inv F
  0.500000  0.250000  0.125000    0.00195312  36 t-inv F
 -0.375000  0.250000  0.125000    0.00195312  37 t-inv F
 -0.250000  0.250000  0.125000    0.00195312  38 t-inv F
  0.375000  0.375000  0.125000    0.00195312  39 t-inv F
  0.500000  0.375000  0.125000    0.00195312  40 t-inv F
 -0.375000  0.375000  0.125000    0.00195312  41 t-inv F
  0.500000  0.500000  0.125000    0.00195312  42 t-inv F
  0.000000  0.000000  0.250000    0.00195312  43 t-inv F
  0.125000  0.000000  0.250000    0.00195312  44 t-inv F
  0.250000  0.000000  0.250000    0.00195312  45 t-inv F
  0.375000  0.000000  0.250000    0.00195312  46 t-inv F
  0.500000  0.000000  0.250000    0.00195312  47 t-inv F
  0.125000  0.125000  0.250000    0.00195312  48 t-inv F
  0.250000  0.125000  0.250000    0.00195312  49 t-inv F
  0.375000  0.125000  0.250000    0.00195312  50 t-inv F
  0.500000  0.125000  0.250000    0.00195312  51 t-inv F
 -0.375000  0.125000  0.250000    0.00195312  52 t-inv F
 -0.250000  0.125000  0.250000    0.00195312  53 t-inv F
 -0.125000  0.125000  0.250000    0.00195312  54 t-inv F
  0.250000  0.250000  0.250000    0.00195312  55 t-inv F
  0.375000  0.250000  0.250000    0.00195312  56 t-inv F
  0.500000  0.250000  0.250000    0.00195312  57 t-inv F
 -0.375000  0.250000  0.250000    0.00195312  58 t-inv F
 -0.250000  0.250000  0.250000    0.00195312  59 t-inv F
  0.375000  0.375000  0.250000    0.00195312  60 t-inv F
  0.500000  0.375000  0.250000    0.00195312  61 t-inv F
 -0.375000  0.375000  0.250000    0.00195312  62 t-inv F
  0.500000  0.500000  0.250000    0.00195312  63 t-inv F
  0.000000  0.000000  0.375000    0.00195312  64 t-inv F
  0.125000  0.000000  0.375000    0.00195312  65 t-inv F
  0.250000  0.000000  0.375000    0.00195312  66 t-inv F
  0.375000  0.000000  0.375000    0.00195312  67 t-inv F
  0.500000  0.000000  0.375000    0.00195312  68 t-inv F
  0.125000  0.125000  0.375000    0.00195312  69 t-inv F
  0.250000  0.125000  0.375000    0.00195312  70 t-inv F
  0.375000  0.125000  0.375000    0.00195312  71 t-inv F
  0.500000  0.125000  0.375000    0.00195312  72 t-inv F
 -0.375000  0.125000  0.375000    0.00195312  73 t-inv F
 -0.250000  0.125000  0.375000    0.00195312  74 t-inv F
 -0.125000  0.125000  0.375000    0.00195312  75 t-inv F
  0.250000  0.250000  0.375000    0.00195312  76 t-inv F
  0.375000  0.250000  0.375000    0.00195312  77 t-inv F
  0.500000  0.250000  0.375000    0.00195312  78 t-inv F
 -0.375000  0.250000  0.375000    0.00195312  79 t-inv F
 -0.250000  0.250000  0.375000    0.00195312  80 t-inv F
  0.375000  0.375000  0.375000    0.00195312  81 t-inv F
  0.500000  0.375000  0.375000    0.00195312  82 t-inv F
 -0.375000  0.375000  0.375000    0.00195312  83 t-inv F
  0.500000  0.500000  0.375000    0.00195312  84 t-inv F
  0.000000  0.000000  0.500000    0.00195312  85 t-inv F
  0.125000  0.000000  0.500000    0.00195312  86 t-inv F
  0.250000  0.000000  0.500000    0.00195312  87 t-inv F
  0.375000  0.000000  0.500000    0.00195312  88 t-inv F
  0.500000  0.000000  0.500000    0.00195312  89 t-inv F
  0.125000  0.125000  0.500000    0.00195312  90 t-inv F
  0.250000  0.125000  0.500000    0.00195312  91 t-inv F
  0.375000  0.125000  0.500000    0.00195312  92 t-inv F
  0.500000  0.125000  0.500000    0.00195312  93 t-inv F
 -0.375000  0.125000  0.500000    0.00195312  94 t-inv F
 -0.250000  0.125000  0.500000    0.00195312  95 t-inv F
 -0.125000  0.125000  0.500000    0.00195312  96 t-inv F
  0.250000  0.250000  0.500000    0.00195312  97 t-inv F
  0.375000  0.250000  0.500000    0.00195312  98 t-inv F
  0.500000  0.250000  0.500000    0.00195312  99 t-inv F
 -0.375000  0.250000  0.500000    0.00195312 100 t-inv F
 -0.250000  0.250000  0.500000    0.00195312 101 t-inv F
  0.375000  0.375000  0.500000    0.00195312 102 t-inv F
  0.500000  0.375000  0.500000    0.00195312 103 t-inv F
 -0.375000  0.375000  0.500000    0.00195312 104 t-inv F
  0.500000  0.500000  0.500000    0.00195312 105 t-inv F
 -0.125000 -0.000000 -0.000000    0.00195312   2 t-inv F
  0.000000  0.125000 -0.000000    0.00195312   2 t-inv F
 -0.000000 -0.125000  0.000000    0.00195312   2 t-inv F
 -0.250000 -0.000000 -0.000000    0.00195312   3 t-inv F
  0.000000  0.250000 -0.000000    0.00195312   3 t-inv F
 -0.000000 -0.250000  0.000000    0.00195312   3 t-inv F
 -0.375000 -0.000000 -0.000000    0.00195312   4 t-inv F
  0.000000  0.375000 -0.000000    0.00195312   4 t-inv F
 -0.000000 -0.375000  0.000000    0.00195312   4 t-inv F
  0.000000  0.500000 -0.000000    0.00195312   5 t-inv F
 -0.125000 -0.125000 -0.000000    0.00195312   6 t-inv F
 -0.250000 -0.125000 -0.000000    0.00195312   7 t-inv F
  0.125000  0.250000 -0.000000    0.00195312   7 t-inv F
 -0.125000 -0.250000  0.000000    0.00195312   7 t-inv F
 -0.375000 -0.125000 -0.000000    0.00195312   8 t-inv F
  0.125000  0.375000 -0.000000    0.00195312   8 t-inv F
 -0.125000 -0.375000  0.000000    0.00195312   8 t-inv F
 -0.500000 -0.125000 -0.000000    0.00195312   9 t-inv F
  0.125000  0.500000 -0.000000    0.00195312   9 t-inv F
 -0.125000 -0.500000  0.000000    0.00195312   9 t-inv F
  0.375000 -0.125000 -0.000000    0.00195312  10 t-inv F
  0.125000 -0.375000 -0.000000    0.00195312  10 t-inv F
 -0.125000  0.375000  0.000000    0.00195312  10 t-inv F
  0.250000 -0.125000 -0.000000    0.00195312  11 t-inv F
  0.125000 -0.250000 -0.000000    0.00195312  11 t-inv F
 -0.125000  0.250000  0.000000    0.00195312  11 t-inv F
  0.125000 -0.125000 -0.000000    0.00195312  12 t-inv F
 -0.250000 -0.250000 -0.000000    0.00195312  13 t-inv F
 -0.375000 -0.250000 -0.000000    0.00195312  14 t-inv F
  0.250000  0.375000 -0.000000    0.00195312  14 t-inv F
 -0.250000 -0.375000  0.000000    0.00195312  14 t-inv F
 -0.500000 -0.250000 -0.000000    0.00195312  15 t-inv F
  0.250000  0.500000 -0.000000    0.00195312  15 t-inv F
 -0.250000 -0.500000  0.000000    0.00195312  15 t-inv F
  0.375000 -0.250000 -0.000000    0.00195312  16 t-inv F
  0.250000 -0.375000 -0.000000    0.00195312  16 t-inv F
 -0.250000  0.375000  0.000000    0.00195312  16 t-inv F
  0.250000 -0.250000 -0.000000    0.00195312  17 t-inv F
 -0.375000 -0.375000 -0.000000    0.00195312  18 t-inv F
 -0.500000 -0.375000 -0.000000    0.00195312  19 t-inv F
  0.375000  0.500000 -0.000000    0.00195312  19 t-inv F
 -0.375000 -0.500000  0.000000    0.00195312  19 t-inv F
  0.375000 -0.375000 -0.000000    0.00195312  20 t-inv F
 -0.000000 -0.000000 -0.125000    0.00195312  22 t-inv F
 -0.125000 -0.000000 -0.125000    0.00195312  23 t-inv F
  0.000000  0.125000 -0.125000    0.00195312  23 t-inv F
 -0.000000 -0.125000  0.125000    0.00195312  23 t-inv F
 -0.125000 -0.000000  0.125000    0.00195312  23 t-inv F
  0.125000  0.000000 -0.125000    0.00195312  23 t-inv F
 -0.000000 -0.125000 -0.125000    0.00195312  23 t-inv F
  0.000000  0.125000  0.125000    0.00195312  23 t-inv F
 -0.250000 -0.000000 -0.125000    0.00195312  24 t-inv F
  0.000000  0.250000 -0.125000    0.00195312  24 t-inv F
 -0.000000 -0.250000  0.125000    0.00195312  24 t-inv F
 -0.250000 -0.000000  0.125000    0.00195312  24 t-inv F
  0.250000  0.000000 -0.125000    0.00195312  24 t-inv F
 -0.000000 -0.250000 -0.125000    0.00195312  24 t-inv F
  0.000000  0.250000  0.125000    0.00195312  24 t-inv F
 -0.375000 -0.000000 -0.125000    0.00195312  25 t-inv F
  0.000000  0.375000 -0.125000    0.00195312  25 t-inv F
 -0.000000 -0.375000  0.125000    0.00195312  25 t-inv F
 -0.375000 -0.000000  0.125000    0.00195312  25 t-inv F
  0.375000  0.000000 -0.125000    0.00195312  25 t-inv F
 -0.000000 -0.375000 -0.125000    0.00195312  25 t-inv F
  0.000000  0.375000  0.125000    0.00195312  25 t-inv F
 -0.500000 -0.000000 -0.125000    0.00195312  26 t-inv F
  0.000000  0.500000 -0.125000    0.00195312  26 t-inv F
 -0.000000 -0.500000  0.125000    0.00195312  26 t-inv F
 -0.125000 -0.125000 -0.125000    0.00195312  27 t-inv F
  0.125000  0.125000 -0.125000    0.00195312  27 t-inv F
 -0.125000 -0.125000  0.125000    0.00195312  27 t-inv F
 -0.250000 -0.125000 -0.125000    0.00195312  28 t-inv F
  0.125000  0.250000 -0.125000    0.00195312  28 t-inv F
 -0.125000 -0.250000  0.125000    0.00195312  28 t-inv F
 -0.250000 -0.125000  0.125000    0.00195312  28 t-inv F
  0.250000  0.125000 -0.125000    0.00195312  28 t-inv F
 -0.125000 -0.250000 -0.125000    0.00195312  28 t-inv F
  0.125000  0.250000  0.125000    0.00195312  28 t-inv F
 -0.375000 -0.125000 -0.125000    0.00195312  29 t-inv F
  0.125000  0.375000 -0.125000    0.00195312  29 t-inv F
 -0.125000 -0.375000  0.125000    0.00195312  29 t-inv F
 -0.375000 -0.125000  0.125000    0.00195312  29 t-inv F
  0.375000  0.125000 -0.125000    0.00195312  29 t-inv F
 -0.125000 -0.375000 -0.125000    0.00195312  29 t-inv F
  0.125000  0.375000  0.125000    0.00195312  29 t-inv F
 -0.500000 -0.125000 -0.125000    0.00195312  30 t-inv F
  0.125000  0.500000 -0.125000    0.00195312  30 t-inv F
 -0.125000 -0.500000  0.125000    0.00195312  30 t-inv F
 -0.500000 -0.125000  0.125000    0.00195312  30 t-inv F
  0.500000  0.125000 -0.125000    0.00195312  30 t-inv F
 -0.125000 -0.500000 -0.125000    0.00195312  30 t-inv F
  0.125000  0.500000  0.125000    0.00195312  30 t-inv F
  0.375000 -0.125000 -0.125000    0.00195312  31 t-inv F
  0.125000 -0.375000 -0.125000    0.00195312  31 t-inv F
 -0.125000  0.375000  0.125000    0.00195312  31 t-inv F
  0.375000 -0.125000  0.125000    0.00195312  31 t-inv F
 -0.375000  0.125000 -0.125000    0.00195312  31 t-inv F
 -0.125000  0.375000 -0.125000    0.00195312  31 t-inv F
  0.125000 -0.375000  0.125000    0.00195312  31 t-inv F
  0.250000 -0.125000 -0.125000    0.00195312  32 t-inv F
  0.125000 -0.250000 -0.125000    0.00195312  32 t-inv F
 -0.125000  0.250000  0.125000    0.00195312  32 t-inv F
  0.250000 -0.125000  0.125000    0.00195312  32 t-inv F
 -0.250000  0.125000 -0.125000    0.00195312  32 t-inv F
 -0.125000  0.250000 -0.125000    0.00195312  32 t-inv F
  0.125000 -0.250000  0.125000    0.00195312  32 t-inv F
  0.125000 -0.125000 -0.125000    0.00195312  33 t-inv F
  0.125000 -0.125000  0.125000    0.00195312  33 t-inv F
 -0.125000  0.125000 -0.125000    0.00195312  33 t-inv F
 -0.250000 -0.250000 -0.125000    0.00195312  34 t-inv F
  0.250000  0.250000 -0.125000    0.00195312  34 t-inv F
 -0.250000 -0.250000  0.125000    0.00195312  34 t-inv F
 -0.375000 -0.250000 -0.125000    0.00195312  35 t-inv F
  0.250000  0.375000 -0.125000    0.00195312  35 t-inv F
 -0.250000 -0.375000  0.125000    0.00195312  35 t-inv F
 -0.375000 -0.250000  0.125000    0.00195312  35 t-inv F
  0.375000  0.250000 -0.125000    0.00195312  35 t-inv F
 -0.250000 -0.375000 -0.125000    0.00195312  35 t-inv F
  0.250000  0.375000  0.125000    0.00195312  35 t-inv F
 -0.500000 -0.250000 -0.125000    0.00195312  36 t-inv F
  0.250000  0.500000 -0.125000    0.00195312  36 t-inv F
 -0.250000 -0.500000  0.125000    0.00195312  36 t-inv F
 -0.500000 -0.250000  0.125000    0.00195312  36 t-inv F
  0.500000  0.250000 -0.125000    0.00195312  36 t-inv F
 -0.250000 -0.500000 -0.125000    0.00195312  36 t-inv F
  0.250000  0.500000  0.125000    0.00195312  36 t-inv F
  0.375000 -0.250000 -0.125000    0.00195312  37 t-inv F
  0.250000 -0.375000 -0.125000    0.00195312  37 t-inv F
 -0.250000  0.375000  0.125000    0.00195312  37 t-inv F
  0.375000 -0.250000  0.125000    0.00195312  37 t-inv F
 -0.375000  0.250000 -0.125000    0.00195312  37 t-inv F
 -0.250000  0.375000 -0.125000    0.00195312  37 t-inv F
  0.250000 -0.375000  0.125000    0.00195312  37 t-inv F
  0.250000 -0.250000 -0.125000    0.00195312  38 t-inv F
  0.250000 -0.250000  0.125000    0.00195312  38 t-inv F
 -0.250000  0.250000 -0.125000    0.00195312  38 t-inv F
 -0.375000 -0.375000 -0.125000    0.00195312  39 t-inv F
  0.375000  0.375000 -0.125000    0.00195312  39 t-inv F
 -0.375000 -0.375000  0.125000    0.00195312  39 t-inv F
 -0.500000 -0.375000 -0.125000    0.00195312  40 t-inv F
  0.375000  0.500000 -0.125000    0.00195312  40 t-inv F
 -0.375000 -0.500000  0.125000    0.00195312  40 t-inv F
 -0.500000 -0.375000  0.125000    0.00195312  40 t-inv F
  0.500000  0.375000 -0.125000    0.00195312  40 t-inv F
 -0.375000 -0.500000 -0.125000    0.00195312  40 t-inv F
  0.375000  0.500000  0.125000    0.00195312  40 t-inv F
  0.375000 -0.375000 -0.125000    0.00195312  41 t-inv F
  0.375000 -0.375000  0.125000    0.00195312  41 t-inv F
 -0.375000  0.375000 -0.125000    0.00195312  41 t-inv F
 -0.500000 -0.500000 -0.125000    0.00195312  42 t-inv F
 -0.000000 -0.000000 -0.250000    0.00195312  43 t-inv F
 -0.125000 -0.000000 -0.250000    0.00195312  44 t-inv F
  0.000000  0.125000 -0.250000    0.00195312  44 t-inv F
 -0.000000 -0.125000  0.250000    0.00195312  44 t-inv F
 -0.125000 -0.000000  0.250000    0.00195312  44 t-inv F
  0.125000  0.000000 -0.250000    0.00195312  44 t-inv F
 -0.000000 -0.125000 -0.250000    0.00195312  44 t-inv F
  0.000000  0.125000  0.250000    0.00195312  44 t-inv F
 -0.250000 -0.000000 -0.250000    0.00195312  45 t-inv F
  0.000000  0.250000 -0.250000    0.00195312  45 t-inv F
 -0.000000 -0.250000  0.250000    0.00195312  45 t-inv F
 -0.250000 -0.000000  0.250000    0.00195312  45 t-inv F
  0.250000  0.000000 -0.250000    0.00195312  45 t-inv F
 -0.000000 -0.250000 -0.250000    0.00195312  45 t-inv F
  0.000000  0.250000  0.250000    0.00195312  45 t-inv F
 -0.375000 -0.000000 -0.250000    0.00195312  46 t-inv F
  0.000000  0.375000 -0.250000    0.00195312  46 t-inv F
 -0.000000 -0.375000  0.250000    0.00195312  46 t-inv F
 -0.375000 -0.000000  0.250000    0.00195312  46 t-inv F
  0.375000  0.000000 -0.250000    0.00195312  46 t-inv F
 -0.000000 -0.375000 -0.250000    0.00195312  46 t-inv F
  0.000000  0.375000  0.250000    0.00195312  46 t-inv F
 -0.500000 -0.000000 -0.250000    0.00195312  47 t-inv F
  0.000000  0.500000 -0.250000    0.00195312  47 t-inv F
 -0.000000 -0.500000  0.250000    0.00195312  47 t-inv F
 -0.125000 -0.125000 -0.250000    0.00195312  48 t-inv F
  0.125000  0.125000 -0.250000    0.00195312  48 t-inv F
 -0.125000 -0.125000  0.250000    0.00195312  48 t-inv F
 -0.250000 -0.125000 -0.250000    0.00195312  49 t-inv F
  0.125000  0.250000 -0.250000    0.00195312  49 t-inv F
 -0.125000 -0.250000  0.250000    0.00195312  49 t-inv F
 -0.250000 -0.125000  0.250000    0.00195312  49 t-inv F
  0.250000  0.125000 -0.250000    0.00195312  49 t-inv F
 -0.125000 -0.250000 -0.250000    0.00195312  49 t-inv F
  0.125000  0.250000  0.250000    0.00195312  49 t-inv F
 -0.375000 -0.125000 -0.250000    0.00195312  50 t-inv F
  0.125000  0.375000 -0.250000    0.00195312  50 t-inv F
 -0.125000 -0.375000  0.250000    0.00195312  50 t-inv F
 -0.375000 -0.125000  0.250000    0.00195312  50 t-inv F
  0.375000  0.125000 -0.250000    0.00195312  50 t-inv F
 -0.125000 -0.375000 -0.250000    0.00195312  50 t-inv F
  0.125000  0.375000  0.250000    0.00195312  50 t-inv F
 -0.500000 -0.125000 -0.250000    0.00195312  51 t-inv F
  0.125000  0.500000 -0.250000    0.00195312  51 t-inv F
 -0.125000 -0.500000  0.250000    0.00195312  51 t-inv F
 -0.500000 -0.125000  0.250000    0.00195312  51 t-inv F
  0.500000  0.125000 -0.250000    0.00195312  51 t-inv F
 -0.125000 -0.500000 -0.250000    0.00195312  51 t-inv F
  0.125000  0.500000  0.250000    0.00195312  51 t-inv F
  0.375000 -0.125000 -0.250000    0.00195312  52 t-inv F
  0.125000 -0.375000 -0.250000    0.00195312  52 t-inv F
 -0.125000  0.375000  0.250000    0.00195312  52 t-inv F
  0.375000 -0.125000  0.250000    0.00195312  52 t-inv F
 -0.375000  0.125000 -0.250000    0.00195312  52 t-inv F
 -0.125000  0.375000 -0.250000    0.00195312  52 t-inv F
  0.125000 -0.375000  0.250000    0.00195312  52 t-inv F
  0.250000 -0.125000 -0.250000    0.00195312  53 t-inv F
  0.125000 -0.250000 -0.250000    0.00195312  53 t-inv F
 -0.125000  0.250000  0.250000    0.00195312  53 t-inv F
  0.250000 -0.125000  0.250000    0.00195312  53 t-inv F
 -0.250000  0.125000 -0.250000    0.00195312  53 t-inv F
 -0.125000  0.250000 -0.250000    0.00195312  53 t-inv F
  0.125000 -0.250000  0.250000    0.00195312  53 t-inv F
  0.125000 -0.125000 -0.250000    0.00195312  54 t-inv F
  0.125000 -0.125000  0.250000    0.00195312  54 t-inv F
 -0.125000  0.125000 -0.250000    0.00195312  54 t-inv F
 -0.250000 -0.250000 -0.250000    0.00195312  55 t-inv F
  0.250000  0.250000 -0.250000    0.00195312  55 t-inv F
 -0.250000 -0.250000  0.250000    0.00195312  55 t-inv F
 -0.375000 -0.250000 -0.250000    0.00195312  56 t-inv F
  0.250000  0.375000 -0.250000    0.00195312  56 t-inv F
 -0.250000 -0.375000  0.250000    0.00195312  56 t-inv F
 -0.375000 -0.250000  0.250000    0.00195312  56 t-inv F
  0.375000  0.250000 -0.250000    0.00195312  56 t-inv F
 -0.250000 -0.375000 -0.250000    0.00195312  56 t-inv F
  0.250000  0.375000  0.250000    0.00195312  56 t-inv F
 -0.500000 -0.250000 -0.250000    0.00195312  57 t-inv F
  0.250000  0.500000 -0.250000    0.00195312  57 t-inv F
 -0.250000 -0.500000  0.250000    0.00195312  57 t-inv F
 -0.500000 -0.250000  0.250000    0.00195312  57 t-inv F
  0.500000  0.250000 -0.250000    0.00195312  57 t-inv F
 -0.250000 -0.500000 -0.250000    0.00195312  57 t-inv F
  0.250000  0.500000  0.250000    0.00195312  57 t-inv F
  0.375000 -0.250000 -0.250000    0.00195312  58 t-inv F
  0.250000 -0.375000 -0.250000    0.00195312  58 t-inv F
 -0.250000  0.375000  0.250000    0.00195312  58 t-inv F
  0.375000 -0.250000  0.250000    0.00195312  58 t-inv F
 -0.375000  0.250000 -0.250000    0.00195312  58 t-inv F
 -0.250000  0.375000 -0.250000    0.00195312  58 t-inv F
  0.250000 -0.375000  0.250000    0.00195312  58 t-inv F
  0.250000 -0.250000 -0.250000    0.00195312  59 t-inv F
  0.250000 -0.250000  0.250000    0.00195312  59 t-inv F
 -0.250000  0.250000 -0.250000    0.00195312  59 t-inv F
 -0.375000 -0.375000 -0.250000    0.00195312  60 t-inv F
  0.375000  0.375000 -0.250000    0.00195312  60 t-inv F
 -0.375000 -0.375000  0.250000    0.00195312  60 t-inv F
 -0.500000 -0.375000 -0.250000    0.00195312  61 t-inv F
  0.375000  0.500000 -0.250000    0.00195312  61 t-inv F
 -0.375000 -0.500000  0.250000    0.00195312  61 t-inv F
 -0.500000 -0.375000  0.250000    0.00195312  61 t-inv F
  0.500000  0.375000 -0.250000    0.00195312  61 t-inv F
 -0.375000 -0.500000 -0.250000    0.00195312  61 t-inv F
  0.375000  0.500000  0.250000    0.00195312  61 t-inv F
  0.375000 -0.375000 -0.250000    0.00195312  62 t-inv F
  0.375000 -0.375000  0.250000    0.00195312  62 t-inv F
 -0.375000  0.375000 -0.250000    0.00195312  62 t-inv F
 -0.500000 -0.500000 -0.250000    0.00195312  63 t-inv F
 -0.000000 -0.000000 -0.375000    0.00195312  64 t-inv F
 -0.125000 -0.000000 -0.375000    0.00195312  65 t-inv F
  0.000000  0.125000 -0.375000    0.00195312  65 t-inv F
 -0.000000 -0.125000  0.375000    0.00195312  65 t-inv F
 -0.125000 -0.000000  0.375000    0.00195312  65 t-inv F
  0.125000  0.000000 -0.375000    0.00195312  65 t-inv F
 -0.000000 -0.125000 -0.375000    0.00195312  65 t-inv F
  0.000000  0.125000  0.375000    0.00195312  65 t-inv F
 -0.250000 -0.000000 -0.375000    0.00195312  66 t-inv F
  0.000000  0.250000 -0.375000    0.00195312  66 t-inv F
 -0.000000 -0.250000  0.375000    0.00195312  66 t-inv F
 -0.250000 -0.000000  0.375000    0.00195312  66 t-inv F
  0.250000  0.000000 -0.375000    0.00195312  66 t-inv F
 -0.000000 -0.250000 -0.375000    0.00195312  66 t-inv F
  0.000000  0.250000  0.375000    0.00195312  66 t-inv F
 -0.375000 -0.000000 -0.375000    0.00195312  67 t-inv F
  0.000000  0.375000 -0.375000    0.00195312  67 t-inv F
 -0.000000 -0.375000  0.375000    0.00195312  67 t-inv F
 -0.375000 -0.000000  0.375000    0.00195312  67 t-inv F
  0.375000  0.000000 -0.375000    0.00195312  67 t-inv F
 -0.000000 -0.375000 -0.375000    0.00195312  67 t-inv F
  0.000000  0.375000  0.375000    0.00195312  67 t-inv F
 -0.500000 -0.000000 -0.375000    0.00195312  68 t-inv F
  0.000000  0.500000 -0.375000    0.00195312  68 t-inv F
 -0.000000 -0.500000  0.375000    0.00195312  68 t-inv F
 -0.125000 -0.125000 -0.375000    0.00195312  69 t-inv F
  0.125000  0.125000 -0.375000    0.00195312  69 t-inv F
 -0.125000 -0.125000  0.375000    0.00195312  69 t-inv F
 -0.250000 -0.125000 -0.375000    0.00195312  70 t-inv F
  0.125000  0.250000 -0.375000    0.00195312  70 t-inv F
 -0.125000 -0.250000  0.375000    0.00195312  70 t-inv F
 -0.250000 -0.125000  0.375000    0.00195312  70 t-inv F
  0.250000  0.125000 -0.375000    0.00195312  70 t-inv F
 -0.125000 -0.250000 -0.375000    0.00195312  70 t-inv F
  0.125000  0.250000  0.375000    0.00195312  70 t-inv F
 -0.375000 -0.125000 -0.375000    0.00195312  71 t-inv F
  0.125000  0.375000 -0.375000    0.00195312  71 t-inv F
 -0.125000 -0.375000  0.375000    0.00195312  71 t-inv F
 -0.375000 -0.125000  0.375000    0.00195312  71 t-inv F
  0.375000  0.125000 -0.375000    0.00195312  71 t-inv F
 -0.125000 -0.375000 -0.375000    0.00195312  71 t-inv F
  0.125000  0.375000  0.375000    0.00195312  71 t-inv F
 -0.500000 -0.125000 -0.375000    0.00195312  72 t-inv F
  0.125000  0.500000 -0.375000    0.00195312  72 t-inv F
 -0.125000 -0.500000  0.375000    0.00195312  72 t-inv F
 -0.500000 -0.125000  0.375000    0.00195312  72 t-inv F
  0.500000  0.125000 -0.375000    0.00195312  72 t-inv F
 -0.125000 -0.500000 -0.375000    0.00195312  72 t-inv F
  0.125000  0.500000  0.375000    0.00195312  72 t-inv F
  0.375000 -0.125000 -0.375000    0.00195312  73 t-inv F
  0.125000 -0.375000 -0.375000    0.00195312  73 t-inv F
 -0.125000  0.375000  0.375000    0.00195312  73 t-inv F
  0.375000 -0.125000  0.375000    0.00195312  73 t-inv F
 -0.375000  0.125000 -0.375000    0.00195312  73 t-inv F
 -0.125000  0.375000 -0.375000    0.00195312  73 t-inv F
  0.125000 -0.375000  0.375000    0.00195312  73 t-inv F
  0.250000 -0.125000 -0.375000    0.00195312  74 t-inv F
  0.125000 -0.250000 -0.375000    0.00195312  74 t-inv F
 -0.125000  0.250000  0.375000    0.00195312  74 t-inv F
  0.250000 -0.125000  0.375000    0.00195312  74 t-inv F
 -0.250000  0.125000 -0.375000    0.00195312  74 t-inv F
 -0.125000  0.250000 -0.375000    0.00195312  74 t-inv F
  0.125000 -0.250000  0.375000    0.00195312  74 t-inv F
  0.125000 -0.125000 -0.375000    0.00195312  75 t-inv F
  0.125000 -0.125000  0.375000    0.00195312  75 t-inv F
 -0.125000  0.125000 -0.375000    0.00195312  75 t-inv F
 -0.250000 -0.250000 -0.375000    0.00195312  76 t-inv F
  0.250000  0.250000 -0.375000    0.00195312  76 t-inv F
 -0.250000 -0.250000  0.375000    0.00195312  76 t-inv F
 -0.375000 -0.250000 -0.375000    0.00195312  77 t-inv F
  0.250000  0.375000 -0.375000    0.00195312  77 t-inv F
 -0.250000 -0.375000  0.375000    0.00195312  77 t-inv F
 -0.375000 -0.250000  0.375000    0.00195312  77 t-inv F
  0.375000  0.250000 -0.375000    0.00195312  77 t-inv F
 -0.250000 -0.375000 -0.375000    0.00195312  77 t-inv F
  0.250000  0.375000  0.375000    0.00195312  77 t-inv F
 -0.500000 -0.250000 -0.375000    0.00195312  78 t-inv F
  0.250000  0.500000 -0.375000    0.00195312  78 t-inv F
 -0.250000 -0.500000  0.375000    0.00195312  78 t-inv F
 -0.500000 -0.250000  0.375000    0.00195312  78 t-inv F
  0.500000  0.250000 -0.375000    0.00195312  78 t-inv F
 -0.250000 -0.500000 -0.375000    0.00195312  78 t-inv F
  0.250000  0.500000  0.375000    0.00195312  78 t-inv F
  0.375000 -0.250000 -0.375000    0.00195312  79 t-inv F
  0.250000 -0.375000 -0.375000    0.00195312  79 t-inv F
 -0.250000  0.375000  0.375000    0.00195312  79 t-inv F
  0.375000 -0.250000  0.375000    0.00195312  79 t-inv F
 -0.375000  0.250000 -0.375000    0.00195312  79 t-inv F
 -0.250000  0.375000 -0.375000    0.00195312  79 t-inv F
  0.250000 -0.375000  0.375000    0.00195312  79 t-inv F
  0.250000 -0.250000 -0.375000    0.00195312  80 t-inv F
  0.250000 -0.250000  0.375000    0.00195312  80 t-inv F
 -0.250000  0.250000 -0.375000    0.00195312  80 t-inv F
 -0.375000 -0.375000 -0.375000    0.00195312  81 t-inv F
  0.375000  0.375000 -0.375000    0.00195312  81 t-inv F
 -0.375000 -0.375000  0.375000    0.00195312  81 t-inv F
 -0.500000 -0.375000 -0.375000    0.00195312  82 t-inv F
  0.375000  0.500000 -0.375000    0.00195312  82 t-inv F
 -0.375000 -0.500000  0.375000    0.00195312  82 t-inv F
 -0.500000 -0.375000  0.375000    0.00195312  82 t-inv F
  0.500000  0.375000 -0.375000    0.00195312  82 t-inv F
 -0.375000 -0.500000 -0.375000    0.00195312  82 t-inv F
  0.375000  0.500000  0.375000    0.00195312  82 t-inv F
  0.375000 -0.375000 -0.375000    0.00195312  83 t-inv F
  0.375000 -0.375000  0.375000    0.00195312  83 t-inv F
 -0.375000  0.375000 -0.375000    0.00195312  83 t-inv F
 -0.500000 -0.500000 -0.375000    0.00195312  84 t-inv F
 -0.125000 -0.000000 -0.500000    0.00195312  86 t-inv F
  0.000000  0.125000 -0.500000    0.00195312  86 t-inv F
 -0.000000 -0.125000  0.500000    0.00195312  86 t-inv F
 -0.250000 -0.000000 -0.500000    0.00195312  87 t-inv F
  0.000000  0.250000 -0.500000    0.00195312  87 t-inv F
 -0.000000 -0.250000  0.500000    0.00195312  87 t-inv F
 -0.375000 -0.000000 -0.500000    0.00195312  88 t-inv F
  0.000000  0.375000 -0.500000    0.00195312  88 t-inv F
 -0.000000 -0.375000  0.500000    0.00195312  88 t-inv F
  0.000000  0.500000 -0.500000    0.00195312  89 t-inv F
 -0.125000 -0.125000 -0.500000    0.00195312  90 t-inv F
 -0.250000 -0.125000 -0.500000    0.00195312  91 t-inv F
  0.125000  0.250000 -0.500000    0.00195312  91 t-inv F
 -0.125000 -0.250000  0.500000    0.00195312  91 t-inv F
 -0.375000 -0.125000 -0.500000    0.00195312  92 t-inv F
  0.125000  0.375000 -0.500000    0.00195312  92 t-inv F
 -0.125000 -0.375000  0.500000    0.00195312  92 t-inv F
 -0.500000 -0.125000 -0.500000    0.00195312  93 t-inv F
  0.125000  0.500000 -0.500000    0.00195312  93 t-inv F
 -0.125000 -0.500000  0.500000    0.00195312  93 t-inv F
  0.375000 -0.125000 -0.500000    0.00195312  94 t-inv F
  0.125000 -0.375000 -0.500000    0.00195312  94 t-inv F
 -0.125000  0.375000  0.500000    0.00195312  94 t-inv F
  0.250000 -0.125000 -0.500000    0.00195312  95 t-inv F
  0.125000 -0.250000 -0.500000    0.00195312  95 t-inv F
 -0.125000  0.250000  0.500000    0.00195312  95 t-inv F
  0.125000 -0.125000 -0.500000    0.00195312  96 t-inv F
 -0.250000 -0.250000 -0.500000    0.00195312  97 t-inv F
 -0.375000 -0.250000 -0.500000    0.00195312  98 t-inv F
  0.250000  0.375000 -0.500000    0.00195312  98 t-inv F
 -0.250000 -0.375000  0.500000    0.00195312  98 t-inv F
 -0.500000 -0.250000 -0.500000    0.00195312  99 t-inv F
  0.250000  0.500000 -0.500000    0.00195312  99 t-inv F
 -0.250000 -0.500000  0.500000    0.00195312  99 t-inv F
  0.375000 -0.250000 -0.500000    0.00195312 100 t-inv F
  0.250000 -0.375000 -0.500000    0.00195312 100 t-inv F
 -0.250000  0.375000  0.500000    0.00195312 100 t-inv F
  0.250000 -0.250000 -0.500000    0.00195312 101 t-inv F
 -0.375000 -0.375000 -0.500000    0.00195312 102 t-inv F
 -0.500000 -0.375000 -0.500000    0.00195312 103 t-inv F
  0.375000  0.500000 -0.500000    0.00195312 103 t-inv F
 -0.375000 -0.500000  0.500000    0.00195312 103 t-inv F
  0.375000 -0.375000 -0.500000    0.00195312 104 t-inv F


--------------------------------------------------------------------------------------------------------




 Dimension of arrays:
   k-points           NKPTS =    105   k-points in BZ     NKDIM =    105   number of bands    NBANDS=     24
   number of dos      NEDOS =    301   number of ions     NIONS =      4
   non local maximal  LDIM  =      6   non local SUM 2l+1 LMDIM =     18
   total plane-waves  NPLWV =  90000
   max r-space proj   IRMAX =      1   max aug-charges    IRDMAX=  37695
   dimension x,y,z NGX =    50 NGY =   50 NGZ =   36
   dimension x,y,z NGXF=   100 NGYF=  100 NGZF=   72
   support grid    NGXF=   100 NGYF=  100 NGZF=   72
   ions per type =               2   2
   NGX,Y,Z   is equivalent  to a cutoff of  13.23, 13.23, 14.09 a.u.
   NGXF,Y,Z  is equivalent  to a cutoff of  26.46, 26.46, 28.18 a.u.

 SYSTEM =  SnSe                                    
 POSCAR =  Sn2 Se2                                 

 Startparameter for this run:
   NWRITE =      2    write-flag & timer
   PREC   = accura    normal or accurate (medium, high low for compatibility)
   ISTART =      0    job   : 0-new  1-cont  2-samecut
   ICHARG =      2    charge: 1-file 2-atom 10-const
   ISPIN  =      1    spin polarized calculation?
   LNONCOLLINEAR =      F non collinear calculations
   LSORBIT =      F    spin-orbit coupling
   INIWAV =      1    electr: 0-lowe 1-rand  2-diag
   LASPH  =      F    aspherical Exc in radial PAW
   METAGGA=      F    non-selfconsistent MetaGGA calc.

 Electronic Relaxation 1
   ENCUT  =  600.0 eV  44.10 Ry    6.64 a.u.  12.55 12.55  8.48*2*pi/ulx,y,z
   ENINI  =  600.0     initial cutoff
   ENAUG  =  446.8 eV  augmentation charge cutoff
   NELM   =     60;   NELMIN=  2; NELMDL= -5     # of ELM steps 
   EDIFF  = 0.1E-06   stopping-criterion for ELM
   LREAL  =      F    real-space projection
   NLSPLINE    = F    spline interpolate recip. space projectors
   LCOMPAT=      F    compatible to vasp.4.4
   GGA_COMPAT  = T    GGA compatible to vasp.4.4-vasp.4.6
   LMAXPAW     = -100 max onsite density
   LMAXMIX     =    2 max onsite mixed and CHGCAR
   VOSKOWN=      0    Vosko Wilk Nusair interpolation
   ROPT   =    0.00000   0.00000
 Ionic relaxation
   EDIFFG = -.1E-02   stopping-criterion for IOM
   NSW    =      1    number of steps for IOM
   NBLOCK =      1;   KBLOCK =      1    inner block; outer block 
   IBRION =      8    ionic relax: 0-MD 1-quasi-New 2-CG
   NFREE  =      0    steps in history (QN), initial steepest desc. (CG)
   ISIF   =      2    stress and relaxation
   IWAVPR =     11    prediction:  0-non 1-charg 2-wave 3-comb
   ISYM   =      2    0-nonsym 1-usesym 2-fastsym
   LCORR  =      T    Harris-Foulkes like correction to forces

   POTIM  = 0.5000    time-step for ionic-motion
   TEIN   =    0.0    initial temperature
   TEBEG  =    0.0;   TEEND  =   0.0 temperature during run
   SMASS  =  -3.00    Nose mass-parameter (am)
   estimated Nose-frequenzy (Omega)   =  0.10E-29 period in steps =****** mass=  -0.902E-27a.u.
   SCALEE = 1.0000    scale energy and forces
   NPACO  =    256;   APACO  = 16.0  distance and # of slots for P.C.
   PSTRESS=    0.0 pullay stress

  Mass of Ions in am
   POMASS = 118.71 78.96
  Ionic Valenz
   ZVAL   =  14.00  6.00
  Atomic Wigner-Seitz radii
   RWIGS  =  -1.00 -1.00
  virtual crystal weights 
   VCA    =   1.00  1.00
   NELECT =      40.0000    total number of electrons
   NUPDOWN=      -1.0000    fix difference up-down

 DOS related values:
   EMIN   =  10.00;   EMAX   =-10.00  energy-range for DOS
   EFERMI =   0.00
   ISMEAR =    -5;   SIGMA  =   0.20  broadening in eV -4-tet -1-fermi 0-gaus

 Electronic relaxation 2 (details)
   IALGO  =     38    algorithm
   LDIAG  =      T    sub-space diagonalisation (order eigenvalues)
   LSUBROT=      F    optimize rotation matrix (better conditioning)
   TURBO    =      0    0=normal 1=particle mesh
   IRESTART =      0    0=no restart 2=restart with 2 vectors
   NREBOOT  =      0    no. of reboots
   NMIN     =      0    reboot dimension
   EREF     =   0.00    reference energy to select bands
   IMIX   =      4    mixing-type and parameters
     AMIX     =   0.40;   BMIX     =  1.00
     AMIX_MAG =   1.60;   BMIX_MAG =  1.00
     AMIN     =   0.10
     WC   =   100.;   INIMIX=   1;  MIXPRE=   1;  MAXMIX= -45

 Intra band minimization:
   WEIMIN = 0.0010     energy-eigenvalue tresh-hold
   EBREAK =  0.10E-08  absolut break condition
   DEPER  =   0.30     relativ break condition  

   TIME   =   0.40     timestep for ELM

  volume/ion in A,a.u.               =      26.79       180.82
  Fermi-wavevector in a.u.,A,eV,Ry     =   1.178668  2.227360 18.902011  1.389259
  Thomas-Fermi vector in A             =   2.314993

 Write flags
   LWAVE        =      T    write WAVECAR
   LDOWNSAMPLE  =      F    k-point downsampling of WAVECAR
   LCHARG       =      T    write CHGCAR
   LVTOT        =      F    write LOCPOT, total local potential
   LVHAR        =      F    write LOCPOT, Hartree potential only
   LELF         =      F    write electronic localiz. function (ELF)
   LORBIT       =      0    0 simple, 1 ext, 2 COOP (PROOUT), +10 PAW based schemes


 Dipole corrections
   LMONO  =      F    monopole corrections only (constant potential shift)
   LDIPOL =      F    correct potential (dipole corrections)
   IDIPOL =      0    1-x, 2-y, 3-z, 4-all directions 
   EPSILON=  1.0000000 bulk dielectric constant

 Exchange correlation treatment:
   GGA     =    --    GGA type
   LEXCH   =     8    internal setting for exchange type
   VOSKOWN=      0    Vosko Wilk Nusair interpolation
   LHFCALC =     F    Hartree Fock is set to
   LHFONE  =     F    Hartree Fock one center treatment
   AEXX    =    0.0000 exact exchange contribution

 Linear response parameters
   LEPSILON=     T    determine dielectric tensor
   LRPA    =     F    only Hartree local field effects (RPA)
   LNABLA  =     F    use nabla operator in PAW spheres
   LVEL    =     F    velocity operator in full k-point grid
   LINTERFAST=   F  fast interpolation
   KINTER  =     0    interpolate to denser k-point grid
   CSHIFT  =0.1000    complex shift for real part using Kramers Kronig
   OMEGAMAX=  -1.0    maximum frequency
   DEG_THRESHOLD= 0.2000000E-02 threshold for treating states as degnerate
   RTIME   =   -0.100 relaxation time in fs
  (WPLASMAI=    0.000 imaginary part of plasma frequency in eV, 0.658/RTIME)
   DFIELD  = 0.0000000 0.0000000 0.0000000 field for delta impulse in time

 Orbital magnetization related:
   ORBITALMAG=     F  switch on orbital magnetization
   LCHIMAG   =     F  perturbation theory with respect to B field
   DQ        =  0.001000  dq finite difference perturbation B field
   LLRAUG    =     F  two centre corrections for induced B field



--------------------------------------------------------------------------------------------------------


 linear response using symmetry
 charge density and potential will be updated during run
 non-spin polarized calculation
 Variant of blocked Davidson
 Davidson routine will perform the subspace rotation
 perform sub-space diagonalisation
    after iterative eigenvector-optimisation
 modified Broyden-mixing scheme, WC =      100.0
 initial mixing is a Kerker type mixing with AMIX =  0.4000 and BMIX =      1.0000
 Hartree-type preconditioning will be used
 using additional bands            4
 reciprocal scheme for non local part
 use partial core corrections
 calculate Harris-corrections to forces   (improved forces if not selfconsistent)
 use gradient corrections 
 use of overlap-Matrix (Vanderbilt PP)
 Fermi weights with tetrahedron method with Bloechl corrections


--------------------------------------------------------------------------------------------------------


  energy-cutoff  :      600.00
  volume of cell :      107.18
      direct lattice vectors                 reciprocal lattice vectors
     2.135524005 -5.908169380 -0.000000000     0.234134573 -0.084628583  0.000000000
     2.135524005  5.908169380  0.000000000     0.234134573  0.084628583 -0.000000000
     0.000000000  0.000000000  4.247392980    -0.000000000 -0.000000000  0.235438540

  length of vectors
     6.282270943  6.282270943  4.247392980     0.248959826  0.248959826  0.235438540



 k-points in units of 2pi/SCALE and weight: Kpoints with grid resolution = 0.030 / A
   0.00000000 -0.00000000  0.00000000       0.002
   0.02926682 -0.01057857  0.00000000       0.008
   0.05853364 -0.02115715  0.00000000       0.008
   0.08780046 -0.03173572  0.00000000       0.008
   0.11706729 -0.04231429  0.00000000       0.004
   0.05853364 -0.00000000  0.00000000       0.004
   0.08780046 -0.01057857  0.00000000       0.008
   0.11706729 -0.02115715  0.00000000       0.008
   0.14633411 -0.03173572  0.00000000       0.008
  -0.05853364  0.04231429  0.00000000       0.008
  -0.02926682  0.03173572  0.00000000       0.008
   0.00000000  0.02115715  0.00000000       0.004
   0.11706729 -0.00000000  0.00000000       0.004
   0.14633411 -0.01057857  0.00000000       0.008
   0.17560093 -0.02115715  0.00000000       0.008
  -0.02926682  0.05289286  0.00000000       0.008
   0.00000000  0.04231429  0.00000000       0.004
   0.17560093 -0.00000000  0.00000000       0.004
   0.20486775 -0.01057857  0.00000000       0.008
   0.00000000  0.06347144  0.00000000       0.004
   0.23413457 -0.00000000  0.00000000       0.002
   0.00000000 -0.00000000  0.02942982       0.004
   0.02926682 -0.01057857  0.02942982       0.016
   0.05853364 -0.02115715  0.02942982       0.016
   0.08780046 -0.03173572  0.02942982       0.016
   0.11706729 -0.04231429  0.02942982       0.008
   0.05853364 -0.00000000  0.02942982       0.008
   0.08780046 -0.01057857  0.02942982       0.016
   0.11706729 -0.02115715  0.02942982       0.016
   0.14633411 -0.03173572  0.02942982       0.016
  -0.05853364  0.04231429  0.02942982       0.016
  -0.02926682  0.03173572  0.02942982       0.016
   0.00000000  0.02115715  0.02942982       0.008
   0.11706729 -0.00000000  0.02942982       0.008
   0.14633411 -0.01057857  0.02942982       0.016
   0.17560093 -0.02115715  0.02942982       0.016
  -0.02926682  0.05289286  0.02942982       0.016
   0.00000000  0.04231429  0.02942982       0.008
   0.17560093 -0.00000000  0.02942982       0.008
   0.20486775 -0.01057857  0.02942982       0.016
   0.00000000  0.06347144  0.02942982       0.008
   0.23413457 -0.00000000  0.02942982       0.004
   0.00000000 -0.00000000  0.05885963       0.004
   0.02926682 -0.01057857  0.05885963       0.016
   0.05853364 -0.02115715  0.05885963       0.016
   0.08780046 -0.03173572  0.05885963       0.016
   0.11706729 -0.04231429  0.05885963       0.008
   0.05853364 -0.00000000  0.05885963       0.008
   0.08780046 -0.01057857  0.05885963       0.016
   0.11706729 -0.02115715  0.05885963       0.016
   0.14633411 -0.03173572  0.05885963       0.016
  -0.05853364  0.04231429  0.05885963       0.016
  -0.02926682  0.03173572  0.05885963       0.016
   0.00000000  0.02115715  0.05885963       0.008
   0.11706729 -0.00000000  0.05885963       0.008
   0.14633411 -0.01057857  0.05885963       0.016
   0.17560093 -0.02115715  0.05885963       0.016
  -0.02926682  0.05289286  0.05885963       0.016
   0.00000000  0.04231429  0.05885963       0.008
   0.17560093 -0.00000000  0.05885963       0.008
   0.20486775 -0.01057857  0.05885963       0.016
   0.00000000  0.06347144  0.05885963       0.008
   0.23413457 -0.00000000  0.05885963       0.004
   0.00000000 -0.00000000  0.08828945       0.004
   0.02926682 -0.01057857  0.08828945       0.016
   0.05853364 -0.02115715  0.08828945       0.016
   0.08780046 -0.03173572  0.08828945       0.016
   0.11706729 -0.04231429  0.08828945       0.008
   0.05853364 -0.00000000  0.08828945       0.008
   0.08780046 -0.01057857  0.08828945       0.016
   0.11706729 -0.02115715  0.08828945       0.016
   0.14633411 -0.03173572  0.08828945       0.016
  -0.05853364  0.04231429  0.08828945       0.016
  -0.02926682  0.03173572  0.08828945       0.016
   0.00000000  0.02115715  0.08828945       0.008
   0.11706729 -0.00000000  0.08828945       0.008
   0.14633411 -0.01057857  0.08828945       0.016
   0.17560093 -0.02115715  0.08828945       0.016
  -0.02926682  0.05289286  0.08828945       0.016
   0.00000000  0.04231429  0.08828945       0.008
   0.17560093 -0.00000000  0.08828945       0.008
   0.20486775 -0.01057857  0.08828945       0.016
   0.00000000  0.06347144  0.08828945       0.008
   0.23413457 -0.00000000  0.08828945       0.004
   0.00000000 -0.00000000  0.11771927       0.002
   0.02926682 -0.01057857  0.11771927       0.008
   0.05853364 -0.02115715  0.11771927       0.008
   0.08780046 -0.03173572  0.11771927       0.008
   0.11706729 -0.04231429  0.11771927       0.004
   0.05853364 -0.00000000  0.11771927       0.004
   0.08780046 -0.01057857  0.11771927       0.008
   0.11706729 -0.02115715  0.11771927       0.008
   0.14633411 -0.03173572  0.11771927       0.008
  -0.05853364  0.04231429  0.11771927       0.008
  -0.02926682  0.03173572  0.11771927       0.008
   0.00000000  0.02115715  0.11771927       0.004
   0.11706729 -0.00000000  0.11771927       0.004
   0.14633411 -0.01057857  0.11771927       0.008
   0.17560093 -0.02115715  0.11771927       0.008
  -0.02926682  0.05289286  0.11771927       0.008
   0.00000000  0.04231429  0.11771927       0.004
   0.17560093 -0.00000000  0.11771927       0.004
   0.20486775 -0.01057857  0.11771927       0.008
   0.00000000  0.06347144  0.11771927       0.004
   0.23413457 -0.00000000  0.11771927       0.002

 k-points in reciprocal lattice and weights: Kpoints with grid resolution = 0.030 / A
   0.00000000  0.00000000  0.00000000       0.002
   0.12500000  0.00000000  0.00000000       0.008
   0.25000000  0.00000000  0.00000000       0.008
   0.37500000  0.00000000  0.00000000       0.008
   0.50000000  0.00000000  0.00000000       0.004
   0.12500000  0.12500000  0.00000000       0.004
   0.25000000  0.12500000  0.00000000       0.008
   0.37500000  0.12500000  0.00000000       0.008
   0.50000000  0.12500000  0.00000000       0.008
  -0.37500000  0.12500000  0.00000000       0.008
  -0.25000000  0.12500000  0.00000000       0.008
  -0.12500000  0.12500000  0.00000000       0.004
   0.25000000  0.25000000  0.00000000       0.004
   0.37500000  0.25000000  0.00000000       0.008
   0.50000000  0.25000000  0.00000000       0.008
  -0.37500000  0.25000000  0.00000000       0.008
  -0.25000000  0.25000000  0.00000000       0.004
   0.37500000  0.37500000  0.00000000       0.004
   0.50000000  0.37500000  0.00000000       0.008
  -0.37500000  0.37500000  0.00000000       0.004
   0.50000000  0.50000000  0.00000000       0.002
   0.00000000  0.00000000  0.12500000       0.004
   0.12500000  0.00000000  0.12500000       0.016
   0.25000000  0.00000000  0.12500000       0.016
   0.37500000  0.00000000  0.12500000       0.016
   0.50000000  0.00000000  0.12500000       0.008
   0.12500000  0.12500000  0.12500000       0.008
   0.25000000  0.12500000  0.12500000       0.016
   0.37500000  0.12500000  0.12500000       0.016
   0.50000000  0.12500000  0.12500000       0.016
  -0.37500000  0.12500000  0.12500000       0.016
  -0.25000000  0.12500000  0.12500000       0.016
  -0.12500000  0.12500000  0.12500000       0.008
   0.25000000  0.25000000  0.12500000       0.008
   0.37500000  0.25000000  0.12500000       0.016
   0.50000000  0.25000000  0.12500000       0.016
  -0.37500000  0.25000000  0.12500000       0.016
  -0.25000000  0.25000000  0.12500000       0.008
   0.37500000  0.37500000  0.12500000       0.008
   0.50000000  0.37500000  0.12500000       0.016
  -0.37500000  0.37500000  0.12500000       0.008
   0.50000000  0.50000000  0.12500000       0.004
   0.00000000  0.00000000  0.25000000       0.004
   0.12500000  0.00000000  0.25000000       0.016
   0.25000000  0.00000000  0.25000000       0.016
   0.37500000  0.00000000  0.25000000       0.016
   0.50000000  0.00000000  0.25000000       0.008
   0.12500000  0.12500000  0.25000000       0.008
   0.25000000  0.12500000  0.25000000       0.016
   0.37500000  0.12500000  0.25000000       0.016
   0.50000000  0.12500000  0.25000000       0.016
  -0.37500000  0.12500000  0.25000000       0.016
  -0.25000000  0.12500000  0.25000000       0.016
  -0.12500000  0.12500000  0.25000000       0.008
   0.25000000  0.25000000  0.25000000       0.008
   0.37500000  0.25000000  0.25000000       0.016
   0.50000000  0.25000000  0.25000000       0.016
  -0.37500000  0.25000000  0.25000000       0.016
  -0.25000000  0.25000000  0.25000000       0.008
   0.37500000  0.37500000  0.25000000       0.008
   0.50000000  0.37500000  0.25000000       0.016
  -0.37500000  0.37500000  0.25000000       0.008
   0.50000000  0.50000000  0.25000000       0.004
   0.00000000  0.00000000  0.37500000       0.004
   0.12500000  0.00000000  0.37500000       0.016
   0.25000000  0.00000000  0.37500000       0.016
   0.37500000  0.00000000  0.37500000       0.016
   0.50000000  0.00000000  0.37500000       0.008
   0.12500000  0.12500000  0.37500000       0.008
   0.25000000  0.12500000  0.37500000       0.016
   0.37500000  0.12500000  0.37500000       0.016
   0.50000000  0.12500000  0.37500000       0.016
  -0.37500000  0.12500000  0.37500000       0.016
  -0.25000000  0.12500000  0.37500000       0.016
  -0.12500000  0.12500000  0.37500000       0.008
   0.25000000  0.25000000  0.37500000       0.008
   0.37500000  0.25000000  0.37500000       0.016
   0.50000000  0.25000000  0.37500000       0.016
  -0.37500000  0.25000000  0.37500000       0.016
  -0.25000000  0.25000000  0.37500000       0.008
   0.37500000  0.37500000  0.37500000       0.008
   0.50000000  0.37500000  0.37500000       0.016
  -0.37500000  0.37500000  0.37500000       0.008
   0.50000000  0.50000000  0.37500000       0.004
   0.00000000  0.00000000  0.50000000       0.002
   0.12500000  0.00000000  0.50000000       0.008
   0.25000000  0.00000000  0.50000000       0.008
   0.37500000  0.00000000  0.50000000       0.008
   0.50000000  0.00000000  0.50000000       0.004
   0.12500000  0.12500000  0.50000000       0.004
   0.25000000  0.12500000  0.50000000       0.008
   0.37500000  0.12500000  0.50000000       0.008
   0.50000000  0.12500000  0.50000000       0.008
  -0.37500000  0.12500000  0.50000000       0.008
  -0.25000000  0.12500000  0.50000000       0.008
  -0.12500000  0.12500000  0.50000000       0.004
   0.25000000  0.25000000  0.50000000       0.004
   0.37500000  0.25000000  0.50000000       0.008
   0.50000000  0.25000000  0.50000000       0.008
  -0.37500000  0.25000000  0.50000000       0.008
  -0.25000000  0.25000000  0.50000000       0.004
   0.37500000  0.37500000  0.50000000       0.004
   0.50000000  0.37500000  0.50000000       0.008
  -0.37500000  0.37500000  0.50000000       0.004
   0.50000000  0.50000000  0.50000000       0.002

 position of ions in fractional coordinates (direct lattice) 
   0.37512364  0.62487636  0.25000000
   0.62487636  0.37512364  0.75000000
   0.14341737  0.85658263  0.25000000
   0.85658263  0.14341737  0.75000000

 position of ions in cartesian coordinates  (Angst):
   2.13552401  1.47558143  1.06184825
   2.13552400 -1.47558143  3.18554473
   2.13552401  4.21350109  1.06184825
   2.13552400 -4.21350109  3.18554473



--------------------------------------------------------------------------------------------------------


 k-point  1 :   0.0000 0.0000 0.0000  plane waves:    3595
 k-point  2 :   0.1250 0.0000 0.0000  plane waves:    3586
 k-point  3 :   0.2500 0.0000 0.0000  plane waves:    3588
 k-point  4 :   0.3750 0.0000 0.0000  plane waves:    3584
 k-point  5 :   0.5000 0.0000 0.0000  plane waves:    3584
 k-point  6 :   0.1250 0.1250 0.0000  plane waves:    3589
 k-point  7 :   0.2500 0.1250 0.0000  plane waves:    3577
 k-point  8 :   0.3750 0.1250 0.0000  plane waves:    3582
 k-point  9 :   0.5000 0.1250 0.0000  plane waves:    3595
 k-point 10 :  -0.3750 0.1250 0.0000  plane waves:    3586
 k-point 11 :  -0.2500 0.1250 0.0000  plane waves:    3578
 k-point 12 :  -0.1250 0.1250 0.0000  plane waves:    3563
 k-point 13 :   0.2500 0.2500 0.0000  plane waves:    3579
 k-point 14 :   0.3750 0.2500 0.0000  plane waves:    3584
 k-point 15 :   0.5000 0.2500 0.0000  plane waves:    3592
 k-point 16 :  -0.3750 0.2500 0.0000  plane waves:    3588
 k-point 17 :  -0.2500 0.2500 0.0000  plane waves:    3568
 k-point 18 :   0.3750 0.3750 0.0000  plane waves:    3604
 k-point 19 :   0.5000 0.3750 0.0000  plane waves:    3576
 k-point 20 :  -0.3750 0.3750 0.0000  plane waves:    3582
 k-point 21 :   0.5000 0.5000 0.0000  plane waves:    3568
 k-point 22 :   0.0000 0.0000 0.1250  plane waves:    3575
 k-point 23 :   0.1250 0.0000 0.1250  plane waves:    3592
 k-point 24 :   0.2500 0.0000 0.1250  plane waves:    3582
 k-point 25 :   0.3750 0.0000 0.1250  plane waves:    3581
 k-point 26 :   0.5000 0.0000 0.1250  plane waves:    3578
 k-point 27 :   0.1250 0.1250 0.1250  plane waves:    3575
 k-point 28 :   0.2500 0.1250 0.1250  plane waves:    3573
 k-point 29 :   0.3750 0.1250 0.1250  plane waves:    3577
 k-point 30 :   0.5000 0.1250 0.1250  plane waves:    3583
 k-point 31 :  -0.3750 0.1250 0.1250  plane waves:    3587
 k-point 32 :  -0.2500 0.1250 0.1250  plane waves:    3588
 k-point 33 :  -0.1250 0.1250 0.1250  plane waves:    3592
 k-point 34 :   0.2500 0.2500 0.1250  plane waves:    3571
 k-point 35 :   0.3750 0.2500 0.1250  plane waves:    3588
 k-point 36 :   0.5000 0.2500 0.1250  plane waves:    3590
 k-point 37 :  -0.3750 0.2500 0.1250  plane waves:    3587
 k-point 38 :  -0.2500 0.2500 0.1250  plane waves:    3578
 k-point 39 :   0.3750 0.3750 0.1250  plane waves:    3596
 k-point 40 :   0.5000 0.3750 0.1250  plane waves:    3578
 k-point 41 :  -0.3750 0.3750 0.1250  plane waves:    3580
 k-point 42 :   0.5000 0.5000 0.1250  plane waves:    3568
 k-point 43 :   0.0000 0.0000 0.2500  plane waves:    3603
 k-point 44 :   0.1250 0.0000 0.2500  plane waves:    3591
 k-point 45 :   0.2500 0.0000 0.2500  plane waves:    3583
 k-point 46 :   0.3750 0.0000 0.2500  plane waves:    3578
 k-point 47 :   0.5000 0.0000 0.2500  plane waves:    3566
 k-point 48 :   0.1250 0.1250 0.2500  plane waves:    3582
 k-point 49 :   0.2500 0.1250 0.2500  plane waves:    3572
 k-point 50 :   0.3750 0.1250 0.2500  plane waves:    3560
 k-point 51 :   0.5000 0.1250 0.2500  plane waves:    3569
 k-point 52 :  -0.3750 0.1250 0.2500  plane waves:    3573
 k-point 53 :  -0.2500 0.1250 0.2500  plane waves:    3585
 k-point 54 :  -0.1250 0.1250 0.2500  plane waves:    3589
 k-point 55 :   0.2500 0.2500 0.2500  plane waves:    3570
 k-point 56 :   0.3750 0.2500 0.2500  plane waves:    3575
 k-point 57 :   0.5000 0.2500 0.2500  plane waves:    3583
 k-point 58 :  -0.3750 0.2500 0.2500  plane waves:    3582
 k-point 59 :  -0.2500 0.2500 0.2500  plane waves:    3587
 k-point 60 :   0.3750 0.3750 0.2500  plane waves:    3580
 k-point 61 :   0.5000 0.3750 0.2500  plane waves:    3572
 k-point 62 :  -0.3750 0.3750 0.2500  plane waves:    3585
 k-point 63 :   0.5000 0.5000 0.2500  plane waves:    3580
 k-point 64 :   0.0000 0.0000 0.3750  plane waves:    3597
 k-point 65 :   0.1250 0.0000 0.3750  plane waves:    3590
 k-point 66 :   0.2500 0.0000 0.3750  plane waves:    3574
 k-point 67 :   0.3750 0.0000 0.3750  plane waves:    3562
 k-point 68 :   0.5000 0.0000 0.3750  plane waves:    3552
 k-point 69 :   0.1250 0.1250 0.3750  plane waves:    3577
 k-point 70 :   0.2500 0.1250 0.3750  plane waves:    3573
 k-point 71 :   0.3750 0.1250 0.3750  plane waves:    3559
 k-point 72 :   0.5000 0.1250 0.3750  plane waves:    3556
 k-point 73 :  -0.3750 0.1250 0.3750  plane waves:    3572
 k-point 74 :  -0.2500 0.1250 0.3750  plane waves:    3587
 k-point 75 :  -0.1250 0.1250 0.3750  plane waves:    3590
 k-point 76 :   0.2500 0.2500 0.3750  plane waves:    3569
 k-point 77 :   0.3750 0.2500 0.3750  plane waves:    3557
 k-point 78 :   0.5000 0.2500 0.3750  plane waves:    3568
 k-point 79 :  -0.3750 0.2500 0.3750  plane waves:    3580
 k-point 80 :  -0.2500 0.2500 0.3750  plane waves:    3591
 k-point 81 :   0.3750 0.3750 0.3750  plane waves:    3577
 k-point 82 :   0.5000 0.3750 0.3750  plane waves:    3570
 k-point 83 :  -0.3750 0.3750 0.3750  plane waves:    3581
 k-point 84 :   0.5000 0.5000 0.3750  plane waves:    3566
 k-point 85 :   0.0000 0.0000 0.5000  plane waves:    3596
 k-point 86 :   0.1250 0.0000 0.5000  plane waves:    3570
 k-point 87 :   0.2500 0.0000 0.5000  plane waves:    3564
 k-point 88 :   0.3750 0.0000 0.5000  plane waves:    3556
 k-point 89 :   0.5000 0.0000 0.5000  plane waves:    3556
 k-point 90 :   0.1250 0.1250 0.5000  plane waves:    3574
 k-point 91 :   0.2500 0.1250 0.5000  plane waves:    3572
 k-point 92 :   0.3750 0.1250 0.5000  plane waves:    3538
 k-point 93 :   0.5000 0.1250 0.5000  plane waves:    3554
 k-point 94 :  -0.3750 0.1250 0.5000  plane waves:    3566
 k-point 95 :  -0.2500 0.1250 0.5000  plane waves:    3584
 k-point 96 :  -0.1250 0.1250 0.5000  plane waves:    3584
 k-point 97 :   0.2500 0.2500 0.5000  plane waves:    3542
 k-point 98 :   0.3750 0.2500 0.5000  plane waves:    3564
 k-point 99 :   0.5000 0.2500 0.5000  plane waves:    3572
 k-point ** :  -0.3750 0.2500 0.5000  plane waves:    3574
 k-point ** :  -0.2500 0.2500 0.5000  plane waves:    3570
 k-point ** :   0.3750 0.3750 0.5000  plane waves:    3562
 k-point ** :   0.5000 0.3750 0.5000  plane waves:    3566
 k-point ** :  -0.3750 0.3750 0.5000  plane waves:    3566
 k-point ** :   0.5000 0.5000 0.5000  plane waves:    3564

 maximum and minimum number of plane-waves per node :      3604     3538

 maximum number of plane-waves:      3604
 maximum index in each direction: 
[...]
     12       0.0059      0.00000
     13       0.2462      0.00000
     14      -0.3071      0.00000
     15      -0.1052      0.00000
     16      -0.0088      0.00000
     17       0.0542      0.00000
     18       0.0256      0.00000
     19       0.2387      0.00000
     20       0.3207      0.00000
     21      -0.3077      0.00000
     22      -0.1781      0.00000
     23      -0.2067      0.00000
     24       0.1840      0.00000

 k-point 150 :       0.1250   -0.1250    0.3750
  band No.  band energies     occupation 
      1       0.0106      0.00000
      2      -0.0082      0.00000
      3      -0.0113      0.00000
      4       0.0092      0.00000
      5      -0.0005      0.00000
      6      -0.0012      0.00000
      7       0.0120      0.00000
      8      -0.0026      0.00000
      9      -0.0120      0.00000
     10       0.0021      0.00000
     11      -0.0030      0.00000
     12       0.0036      0.00000
     13       0.2325      0.00000
     14      -0.2843      0.00000
     15      -0.0813      0.00000
     16       0.1246      0.00000
     17      -0.0103      0.00000
     18       0.0230      0.00000
     19       0.0479      0.00000
     20       0.2489      0.00000
     21      -0.2476      0.00000
     22      -0.1437      0.00000
     23      -0.0252      0.00000
     24       0.1441      0.00000


------------------------ aborting loop because EDIFF is reached ----------------------------------------


    FORLOC:  cpu time    0.0030: real time    0.0030
    FORNL :  cpu time    1.1851: real time    1.1858
    STRESS:  cpu time    6.7382: real time    6.7383
    FORCOR:  cpu time    0.0508: real time    0.0508
    OFIELD:  cpu time    0.0003: real time    0.0003
    FORLOC:  cpu time    0.0030: real time    0.0030
    FORNL :  cpu time    1.1850: real time    1.1851
    STRESS:  cpu time    6.7389: real time    6.7400
    FORCOR:  cpu time    0.0522: real time    0.0522
    OFIELD:  cpu time    0.0003: real time    0.0003
    FORLOC:  cpu time    0.0030: real time    0.0030
    FORNL :  cpu time    1.1851: real time    1.1852
    STRESS:  cpu time    6.7366: real time    6.7374
    FORCOR:  cpu time    0.0509: real time    0.0509
    OFIELD:  cpu time    0.0003: real time    0.0003
    FORLOC:  cpu time    0.0030: real time    0.0030
    FORNL :  cpu time    1.1852: real time    1.1853
    STRESS:  cpu time    6.7067: real time    7.2124
    FORCOR:  cpu time    0.0509: real time    0.0509
    OFIELD:  cpu time    0.0003: real time    0.0003

 INTERNAL STRAIN TENSOR  FOR ION    3  DIRECTION 3   (eV/Angst):
 -----------------------------------------------------------------------------
     0.00115 -0.00000  0.00000
    -0.00000 -0.00424 -2.48053
     0.00000 -2.51109  0.00743


 POSITION                   FORCE-CONSTANT FOR ION    3 DIRECTION 3 (eV/Angst/Angst)
 -----------------------------------------------------------------------------------
      2.13552      1.47558      1.06185         0.000000      0.000430     -0.477211
      2.13552     -1.47558      3.18554         0.000000     -0.000069      0.135305
      2.13552      4.21350      1.06185         0.000000     -0.000089     -1.334989
      2.13552     -4.21350      3.18554        -0.000000     -0.000272      1.676895
 -----------------------------------------------------------------------------------
    total drift:                                0.000000     -0.000000      0.000000


 BORN EFFECTIVE CHARGE FOR ION    3 DIRECTION 3 :   0.000   0.000  -5.864
                   rigid augmentation           :   0.000   0.000   1.128
                   ionic contribution           :   0.000   0.000   6.000
                   Berry contribution           :   0.000   0.000 -12.992


--------------------------------------------------------------------------------------------------------


  LATTYP: Found a base centered orthorhombic cell.
 ALAT       =     4.2710480100
 B/A-ratio  =     2.7666134242
 C/A-ratio  =     0.9944615397
  
  Lattice vectors:
  
 A1 = (   2.1355240050,  -5.9081693800,  -0.0000000000)
 A2 = (   2.1355240050,   5.9081693800,   0.0000000000)
 A3 = (   0.0000000000,   0.0000000000,   4.2473929800)


Analysis of symmetry for initial positions (statically):
=====================================================================
 Subroutine PRICEL returns:
 Original cell was already a primitive cell.
 

 Routine SETGRP: Setting up the symmetry group for a 
 base centered orthorhombic supercell.


 Subroutine GETGRP returns: Found  8 space group operations
 (whereof  4 operations were pure point group operations)
 out of a pool of  8 trial point group operations.


The static configuration has the point symmetry C_2h.
 The point group associated with its full space group is D_2h.


Analysis of symmetry for dynamics (positions and initial velocities):
=====================================================================
 Subroutine PRICEL returns:
 Original cell was already a primitive cell.
 

 Routine SETGRP: Setting up the symmetry group for a 
 base centered orthorhombic supercell.


 Subroutine GETGRP returns: Found  8 space group operations
 (whereof  4 operations were pure point group operations)
 out of a pool of  8 trial point group operations.


The dynamic configuration has the point symmetry C_2h.
 The point group associated with its full space group is D_2h.


 Subroutine INISYM returns: Found  8 space group operations
 (whereof  4 operations are pure point group operations),
 and found     1 'primitive' translations



--------------------------------------------------------------------------------------------------------




 MACROSCOPIC STATIC DIELECTRIC TENSOR (including local field effects in DFT)
 ------------------------------------------------------
          31.826776     0.000000     0.000000
           0.000000    17.502153     0.000000
           0.000000     0.000000    34.673093
 ------------------------------------------------------


 PIEZOELECTRIC TENSOR  for field in x, y, z        (e  Angst)
          XX          YY          ZZ          XY          YZ          ZX
  --------------------------------------------------------------------------------
  x    -0.00955    -0.00978     0.00057     0.00000    -0.00000     0.00000
  y    -0.02391    -0.02322     0.02837    -0.00000    -0.00000     0.00000
  z     0.00488    -0.01422    -0.01812     0.00000    -0.00000     0.00000

 PIEZOELECTRIC TENSOR  for field in x, y, z        (C/m^2)
          XX          YY          ZZ          XY          YZ          ZX
  --------------------------------------------------------------------------------
  x     0.00000     0.00000     0.00000     0.00000     0.00000     0.00000
  y     0.00000     0.00000     0.00000     0.00000     0.00000     0.00000
  z     0.00000     0.00000     0.00000     0.00000     0.00000     0.00000

 BORN EFFECTIVE CHARGES (in e, cummulative output)
 -------------------------------------------------
 ion    1
    1     5.71983    -0.00218     0.00000
    2     0.00000     3.17860     0.00000
    3     0.00000    -0.00340     5.84011
 ion    2
    1     5.71983     0.00218     0.00000
    2     0.00000     3.17902     0.00000
    3     0.00000     0.00340     5.84011
 ion    3
    1    -5.71983    -0.00341    -0.00000
    2     0.00000    -3.18178    -0.00000
    3    -0.00000    -0.00150    -5.84011
 ion    4
    1    -5.71983     0.00341    -0.00000
    2    -0.00000    -3.17584    -0.00000
    3     0.00000     0.00150    -5.84011

 INTERNAL STRAIN TENSOR FOR ION    1 for displacements in x,y,z  (eV/Angst):
          X           Y           Z          XY          YZ          ZX
  --------------------------------------------------------------------------------
  x     0.00000     0.00000     0.00000     0.72659     0.00000     0.00000
  y     3.06134    10.19858     2.78688     0.00000     0.00000     0.00000
  z     0.00000     0.00000     0.00000     0.00000     0.03419     0.00000

 INTERNAL STRAIN TENSOR FOR ION    2 for displacements in x,y,z  (eV/Angst):
          X           Y           Z          XY          YZ          ZX
  --------------------------------------------------------------------------------
  x    -0.00000    -0.00000    -0.00000    -0.72659    -0.00000    -0.00000
  y    -3.06134   -10.19858    -2.78688    -0.00000    -0.00000    -0.00000
  z    -0.00000    -0.00000    -0.00000    -0.00000    -0.03419    -0.00000

 INTERNAL STRAIN TENSOR FOR ION    3 for displacements in x,y,z  (eV/Angst):
          X           Y           Z          XY          YZ          ZX
  --------------------------------------------------------------------------------
  x    -0.00000    -0.00000    -0.00000    -2.14046    -0.00000    -0.00000
  y    -0.80282   -10.22475    -0.22352    -0.00000    -0.00000    -0.00000
  z    -0.00000    -0.00000    -0.00000    -0.00000    -2.51109    -0.00000

 INTERNAL STRAIN TENSOR FOR ION    4 for displacements in x,y,z  (eV/Angst):
          X           Y           Z          XY          YZ          ZX
  --------------------------------------------------------------------------------
  x     0.00000     0.00000     0.00000     2.14046     0.00000     0.00000
  y     0.80282    10.22475     0.22352     0.00000     0.00000     0.00000
  z     0.00000     0.00000     0.00000     0.00000     2.51109     0.00000


--------------------------------------------------------------------------------------------------------



 SECOND DERIVATIVES (NOT SYMMETRIZED)
 ------------------------------------
               1X          1Y          1Z          2X          2Y          2Z          3X          3Y          3Z          4X          4Y          4Z 
  1X    -0.019606   -0.000000   -0.000000    0.134586    0.000000    0.000000   -0.205864    0.000000   -0.000000    0.090884    0.000000    0.000000
  1Y    -0.000000   -4.490472   -0.000000    0.000000    0.797418    0.000000    0.000000    3.664523    0.000000    0.000000    0.028531    0.000000
  1Z    -0.000000   -0.000000   -0.245023    0.000000    0.000000    0.589939   -0.000000    0.000000   -0.452130    0.000000    0.000000    0.107213
  2X     0.134586    0.000000    0.000000   -0.019606   -0.000000   -0.000000    0.090884    0.000000    0.000000   -0.205864    0.000000   -0.000000
  2Y     0.000000    0.797418    0.000000   -0.000000   -4.490472   -0.000000    0.000000    0.028531    0.000000    0.000000    3.664523    0.000000
  2Z     0.000000    0.000000    0.589939   -0.000000   -0.000000   -0.245023    0.000000    0.000000    0.107213   -0.000000    0.000000   -0.452130
  3X    -0.207724    0.000000   -0.000000    0.088735    0.000000    0.000000   -1.438267   -0.000000   -0.000000    1.557256    0.000000    0.000000
  3Y     0.000000    3.649988    0.000000    0.000000    0.015007    0.000000   -0.000000   -4.359799   -0.000000    0.000000    0.694804    0.000000
  3Z    -0.000000    0.000000   -0.477211    0.000000    0.000000    0.135305   -0.000000   -0.000000   -1.334989    0.000000    0.000000    1.676895
  4X     0.088735    0.000000    0.000000   -0.207724    0.000000   -0.000000    1.557256    0.000000    0.000000   -1.438267   -0.000000   -0.000000
  4Y     0.000000    0.015007    0.000000    0.000000    3.649988    0.000000    0.000000    0.694804    0.000000   -0.000000   -4.359799   -0.000000
  4Z     0.000000    0.000000    0.135305   -0.000000    0.000000   -0.477211    0.000000    0.000000    1.676895   -0.000000   -0.000000   -1.334989


 Eigenvectors and eigenvalues of the dynamical matrix
 ----------------------------------------------------


   1 f  =    4.769350 THz    29.966707 2PiTHz  159.088374 cm-1    19.724452 meV
             X         Y         Z           dx          dy          dz
      2.135524  1.475581  1.061848    -0.000000   -0.432737   -0.000000  
      2.135524 -1.475581  3.185545     0.000000    0.432737    0.000000  
      2.135524  4.213501  1.061848     0.000000    0.559231    0.000000  
      2.135524 -4.213501  3.185545    -0.000000   -0.559231   -0.000000  

   2 f  =    4.352857 THz    27.349805 2PiTHz  145.195666 cm-1    18.001975 meV
             X         Y         Z           dx          dy          dz
      2.135524  1.475581  1.061848     0.000000    0.447932   -0.000000  
      2.135524 -1.475581  3.185545     0.000000    0.447932   -0.000000  
      2.135524  4.213501  1.061848    -0.000000   -0.547136    0.000000  
      2.135524 -4.213501  3.185545     0.000000   -0.547136   -0.000000  

   3 f  =    3.098403 THz    19.467839 2PiTHz  103.351592 cm-1    12.813969 meV
             X         Y         Z           dx          dy          dz
      2.135524  1.475581  1.061848     0.000000    0.000000    0.130431  
      2.135524 -1.475581  3.185545    -0.000000   -0.000000   -0.130431  
      2.135524  4.213501  1.061848     0.000000   -0.000000    0.694973  
      2.135524 -4.213501  3.185545    -0.000000    0.000000   -0.694973  

   4 f  =    3.055166 THz    19.196172 2PiTHz  101.909355 cm-1    12.635154 meV
             X         Y         Z           dx          dy          dz
      2.135524  1.475581  1.061848     0.058517    0.000000   -0.000000  
      2.135524 -1.475581  3.185545    -0.058517   -0.000000    0.000000  
      2.135524  4.213501  1.061848     0.704681   -0.000000   -0.000000  
      2.135524 -4.213501  3.185545    -0.704681   -0.000000    0.000000  

   5 f  =    1.945564 THz    12.224341 2PiTHz   64.897038 cm-1     8.046210 meV
             X         Y         Z           dx          dy          dz
      2.135524  1.475581  1.061848     0.000000    0.559231    0.000000  
      2.135524 -1.475581  3.185545    -0.000000   -0.559231   -0.000000  
      2.135524  4.213501  1.061848    -0.000000    0.432737    0.000000  
      2.135524 -4.213501  3.185545     0.000000   -0.432737    0.000000  

   6 f  =    1.200593 THz     7.543548 2PiTHz   40.047470 cm-1     4.965255 meV
             X         Y         Z           dx          dy          dz
      2.135524  1.475581  1.061848     0.000000    0.000000   -0.694973  
      2.135524 -1.475581  3.185545    -0.000000    0.000000    0.694973  
      2.135524  4.213501  1.061848    -0.000000    0.000000    0.130431  
      2.135524 -4.213501  3.185545    -0.000000    0.000000   -0.130431  

   7 f  =    0.505246 THz     3.174552 2PiTHz   16.853178 cm-1     2.089529 meV
             X         Y         Z           dx          dy          dz
      2.135524  1.475581  1.061848     0.704681    0.000000   -0.000000  
      2.135524 -1.475581  3.185545    -0.704681    0.000000   -0.000000  
      2.135524  4.213501  1.061848    -0.058517    0.000000   -0.000000  
      2.135524 -4.213501  3.185545     0.058517    0.000000   -0.000000  

   8 f  =    0.006507 THz     0.040882 2PiTHz    0.217035 cm-1     0.026909 meV
             X         Y         Z           dx          dy          dz
      2.135524  1.475581  1.061848     0.551691    0.000000    0.000000  
      2.135524 -1.475581  3.185545     0.551691    0.000000    0.000000  
      2.135524  4.213501  1.061848     0.442309    0.000000    0.000000  
      2.135524 -4.213501  3.185545     0.442309    0.000000    0.000000  

   9 f  =    0.002857 THz     0.017953 2PiTHz    0.095309 cm-1     0.011817 meV
             X         Y         Z           dx          dy          dz
      2.135524  1.475581  1.061848     0.000000   -0.000000   -0.547010  
      2.135524 -1.475581  3.185545     0.000000   -0.000000   -0.547010  
      2.135524  4.213501  1.061848     0.000000   -0.000000   -0.448084  
      2.135524 -4.213501  3.185545     0.000000   -0.000000   -0.448084  

  10 f/i=    0.008136 THz     0.051120 2PiTHz    0.271389 cm-1     0.033648 meV
             X         Y         Z           dx          dy          dz
      2.135524  1.475581  1.061848     0.000000   -0.547136    0.000000  
      2.135524 -1.475581  3.185545     0.000000   -0.547136    0.000000  
      2.135524  4.213501  1.061848     0.000000   -0.447932    0.000000  
      2.135524 -4.213501  3.185545     0.000000   -0.447932    0.000000  

  11 f/i=    0.777859 THz     4.887434 2PiTHz   25.946590 cm-1     3.216968 meV
             X         Y         Z           dx          dy          dz
      2.135524  1.475581  1.061848    -0.442309   -0.000000   -0.000000  
      2.135524 -1.475581  3.185545    -0.442309   -0.000000   -0.000000  
      2.135524  4.213501  1.061848     0.551691   -0.000000   -0.000000  
      2.135524 -4.213501  3.185545     0.551691   -0.000000   -0.000000  

  12 f/i=    1.329814 THz     8.355466 2PiTHz   44.357812 cm-1     5.499670 meV
             X         Y         Z           dx          dy          dz
      2.135524  1.475581  1.061848    -0.000000    0.000000   -0.448084  
      2.135524 -1.475581  3.185545    -0.000000    0.000000   -0.448084  
      2.135524  4.213501  1.061848     0.000000    0.000000    0.547010  
      2.135524 -4.213501  3.185545     0.000000    0.000000    0.547010  



--------------------------------------------------------------------------------------------------------




 MACROSCOPIC STATIC DIELECTRIC TENSOR IONIC CONTRIBUTION
 ------------------------------------------------------
           0.000035     0.000021     0.000030
           0.000021     9.274278     0.000016
           0.000030     0.000016     0.000027
 ------------------------------------------------------


 ELASTIC MODULI IONIC CONTR (kBar)
 Direction    XX          YY          ZZ          XY          YZ          ZX
 --------------------------------------------------------------------------------
 XX         -72.8190   -127.5772    -74.0186     -0.0000     -0.0000     -0.0000
 YY        -127.5772   -708.8673    -97.0662     -0.0000     -0.0000     -0.0000
 ZZ         -74.0186    -97.0662    -77.4294     -0.0000     -0.0000     -0.0000
 XY          -0.0000     -0.0000     -0.0000   -256.7034     -0.0000     -0.0000
 YZ          -0.0000     -0.0000     -0.0000     -0.0000    -73.9214     -0.0000
 ZX          -0.0000     -0.0000     -0.0000     -0.0000     -0.0000     -0.0000
 --------------------------------------------------------------------------------


 PIEZOELECTRIC TENSOR IONIC CONTR  for field in x, y, z        (C/m^2)
          XX          YY          ZZ          XY          YZ          ZX
  --------------------------------------------------------------------------------
  x    -0.00112     0.00059    -0.00131    -0.00000     0.00000    -0.00000
  y    -0.00051     0.00105    -0.00065    -0.00000     0.00000    -0.00000
  z    -0.00117    -0.00052    -0.00130     0.00000     0.00000    -0.00000


--------------------------------------------------------------------------------------------------------


 writing wavefunctions
     LOOP+:  cpu time 1586.5447: real time 1607.0718
    4ORBIT:  cpu time    0.0000: real time    0.0000
 BZINTS: Fermi energy:  5.421724; 40.000000 electrons
         Band energy:-316.538481;  BLOECHL correction:  0.000000

 total amount of memory used by VASP MPI-rank0   170474. kBytes
=======================================================================

   base      :      30000. kBytes
   nonl-proj :     109336. kBytes
   fftplans  :       3585. kBytes
   grid      :       8985. kBytes
   one-center:         62. kBytes
   wavefun   :      18506. kBytes

  
  
 General timing and accounting informations for this job:
 ========================================================
  
                  Total CPU time used (sec):     1588.446
                            User time (sec):     1582.661
                          System time (sec):        5.785
                         Elapsed time (sec):     1608.993
  
                   Maximum memory used (kb):      448024.
                   Average memory used (kb):           0.
  
                          Minor page faults:       300996
                          Major page faults:            0
                 Voluntary context switches:         2413
