<?xml version="1.0" encoding="ISO-8859-1"?>
<modeling>
 <generator>
  <i name="program" type="string">vasp </i>
  <i name="version" type="string">5.4.4.18Apr17-6-g9f103f2a35  </i>
  <i name="subversion" type="string">(build Mar 20 2018 18:01:20) complex            parallel </i>
  <i name="platform" type="string">LinuxGNU </i>
  <i name="date" type="string">2020 04 23 </i>
  <i name="time" type="string">22:40:43 </i>
 </generator>
 <incar>
  <i type="string" name="SYSTEM"> SnSe</i>
  <i type="int" name="ISTART">     0</i>
  <i type="string" name="PREC">accurate</i>
  <i type="int" name="ICHARG">     2</i>
  <i type="int" name="IBRION">     8</i>
  <i name="EDIFF">      0.00000010</i>
  <i name="EDIFFG">     -0.00100000</i>
  <i type="int" name="NSW">     1</i>
  <i name="ENCUT">    600.00000000</i>
  <i type="int" name="ISMEAR">    -5</i>
  <v type="int" name="KPOINT_BSE">    -1     0     0     0</v>
  <i type="logical" name="LEPSILON"> T  </i>
  <i type="logical" name="LRPA"> F  </i>
 </incar>
 <structure name="primitive_cell" >
  <crystal>
   <varray name="basis" >
    <v>       2.13552400      -5.90816938      -0.00000000 </v>
    <v>       2.13552401       5.90816938       0.00000000 </v>
    <v>       0.00000000       0.00000000       4.24739298 </v>
   </varray>
   <i name="volume">    107.17903332 </i>
   <varray name="rec_basis" >
    <v>       0.23413457      -0.08462858       0.00000000 </v>
    <v>       0.23413457       0.08462858      -0.00000000 </v>
    <v>      -0.00000000      -0.00000000       0.23543854 </v>
   </varray>
  </crystal>
  <varray name="positions" >
   <v>       0.37512364      -0.37512364       0.25000000 </v>
   <v>       0.14341738      -0.14341738       0.25000000 </v>
   <v>      -0.14341738       0.14341738      -0.25000000 </v>
   <v>      -0.37512364       0.37512364      -0.25000000 </v>
  </varray>
 </structure>
 <varray name="primitive_index" >
  <v type="int" >        1 </v>
  <v type="int" >        3 </v>
  <v type="int" >        4 </v>
  <v type="int" >        2 </v>
 </varray>
 <kpoints>
  <generation param="Gamma">
   <v type="int" name="divisions">       8        8        8 </v>
   <v name="usershift">      0.00000000       0.00000000       0.00000000 </v>
   <v name="genvec1">      0.12500000      -0.00000000       0.00000000 </v>
   <v name="genvec2">      0.00000000       0.12500000       0.00000000 </v>
   <v name="genvec3">      0.00000000       0.00000000       0.12500000 </v>
   <v name="shift">      0.00000000       0.00000000       0.00000000 </v>
  </generation>
  <varray name="kpointlist" >
   <v>       0.00000000       0.00000000       0.00000000 </v>
   <v>       0.12500000       0.00000000       0.00000000 </v>
   <v>       0.25000000       0.00000000       0.00000000 </v>
   <v>       0.37500000       0.00000000       0.00000000 </v>
   <v>       0.50000000       0.00000000       0.00000000 </v>
   <v>       0.12500000       0.12500000       0.00000000 </v>
   <v>       0.25000000       0.12500000       0.00000000 </v>
   <v>       0.37500000       0.12500000       0.00000000 </v>
   <v>       0.50000000       0.12500000       0.00000000 </v>
   <v>      -0.37500000       0.12500000       0.00000000 </v>
   <v>      -0.25000000       0.12500000       0.00000000 </v>
   <v>      -0.12500000       0.12500000       0.00000000 </v>
   <v>       0.25000000       0.25000000       0.00000000 </v>
   <v>       0.37500000       0.25000000       0.00000000 </v>
   <v>       0.50000000       0.25000000       0.00000000 </v>
   <v>      -0.37500000       0.25000000       0.00000000 </v>
   <v>      -0.25000000       0.25000000       0.00000000 </v>
   <v>       0.37500000       0.37500000       0.00000000 </v>
   <v>       0.50000000       0.37500000       0.00000000 </v>
   <v>      -0.37500000       0.37500000       0.00000000 </v>
   <v>       0.50000000       0.50000000       0.00000000 </v>
   <v>       0.00000000       0.00000000       0.12500000 </v>
   <v>       0.12500000       0.00000000       0.12500000 </v>
   <v>       0.25000000       0.00000000       0.12500000 </v>
   <v>       0.37500000       0.00000000       0.12500000 </v>
   <v>       0.50000000       0.00000000       0.12500000 </v>
   <v>       0.12500000       0.12500000       0.12500000 </v>
   <v>       0.25000000       0.12500000       0.12500000 </v>
   <v>       0.37500000       0.12500000       0.12500000 </v>
   <v>       0.50000000       0.12500000       0.12500000 </v>
   <v>      -0.37500000       0.12500000       0.12500000 </v>
   <v>      -0.25000000       0.12500000       0.12500000 </v>
   <v>      -0.12500000       0.12500000       0.12500000 </v>
   <v>       0.25000000       0.25000000       0.12500000 </v>
   <v>       0.37500000       0.25000000       0.12500000 </v>
   <v>       0.50000000       0.25000000       0.12500000 </v>
   <v>      -0.37500000       0.25000000       0.12500000 </v>
   <v>      -0.25000000       0.25000000       0.12500000 </v>
   <v>       0.37500000       0.37500000       0.12500000 </v>
   <v>       0.50000000       0.37500000       0.12500000 </v>
   <v>      -0.37500000       0.37500000       0.12500000 </v>
   <v>       0.50000000       0.50000000       0.12500000 </v>
   <v>       0.00000000       0.00000000       0.25000000 </v>
   <v>       0.12500000       0.00000000       0.25000000 </v>
   <v>       0.25000000       0.00000000       0.25000000 </v>
   <v>       0.37500000       0.00000000       0.25000000 </v>
   <v>       0.50000000       0.00000000       0.25000000 </v>
   <v>       0.12500000       0.12500000       0.25000000 </v>
   <v>       0.25000000       0.12500000       0.25000000 </v>
   <v>       0.37500000       0.12500000       0.25000000 </v>
   <v>       0.50000000       0.12500000       0.25000000 </v>
   <v>      -0.37500000       0.12500000       0.25000000 </v>
   <v>      -0.25000000       0.12500000       0.25000000 </v>
   <v>      -0.12500000       0.12500000       0.25000000 </v>
   <v>       0.25000000       0.25000000       0.25000000 </v>
   <v>       0.37500000       0.25000000       0.25000000 </v>
   <v>       0.50000000       0.25000000       0.25000000 </v>
   <v>      -0.37500000       0.25000000       0.25000000 </v>
   <v>      -0.25000000       0.25000000       0.25000000 </v>
   <v>       0.37500000       0.37500000       0.25000000 </v>
   <v>       0.50000000       0.37500000       0.25000000 </v>
   <v>      -0.37500000       0.37500000       0.25000000 </v>
   <v>       0.50000000       0.50000000       0.25000000 </v>
   <v>       0.00000000       0.00000000       0.37500000 </v>
   <v>       0.12500000       0.00000000       0.37500000 </v>
   <v>       0.25000000       0.00000000       0.37500000 </v>
   <v>       0.37500000       0.00000000       0.37500000 </v>
   <v>       0.50000000       0.00000000       0.37500000 </v>
   <v>       0.12500000       0.12500000       0.37500000 </v>
   <v>       0.25000000       0.12500000       0.37500000 </v>
   <v>       0.37500000       0.12500000       0.37500000 </v>
   <v>       0.50000000       0.12500000       0.37500000 </v>
   <v>      -0.37500000       0.12500000       0.37500000 </v>
   <v>      -0.25000000       0.12500000       0.37500000 </v>
   <v>      -0.12500000       0.12500000       0.37500000 </v>
   <v>       0.25000000       0.25000000       0.37500000 </v>
   <v>       0.37500000       0.25000000       0.37500000 </v>
   <v>       0.50000000       0.25000000       0.37500000 </v>
   <v>      -0.37500000       0.25000000       0.37500000 </v>
   <v>      -0.25000000       0.25000000       0.37500000 </v>
   <v>       0.37500000       0.37500000       0.37500000 </v>
   <v>       0.50000000       0.37500000       0.37500000 </v>
   <v>      -0.37500000       0.37500000       0.37500000 </v>
   <v>       0.50000000       0.50000000       0.37500000 </v>
   <v>       0.00000000       0.00000000       0.50000000 </v>
   <v>       0.12500000       0.00000000       0.50000000 </v>
   <v>       0.25000000       0.00000000       0.50000000 </v>
   <v>       0.37500000       0.00000000       0.50000000 </v>
   <v>       0.50000000       0.00000000       0.50000000 </v>
   <v>       0.12500000       0.12500000       0.50000000 </v>
   <v>       0.25000000       0.12500000       0.50000000 </v>
   <v>       0.37500000       0.12500000       0.50000000 </v>
   <v>       0.50000000       0.12500000       0.50000000 </v>
   <v>      -0.37500000       0.12500000       0.50000000 </v>
   <v>      -0.25000000       0.12500000       0.50000000 </v>
   <v>      -0.12500000       0.12500000       0.50000000 </v>
   <v>       0.25000000       0.25000000       0.50000000 </v>
   <v>       0.37500000       0.25000000       0.50000000 </v>
   <v>       0.50000000       0.25000000       0.50000000 </v>
   <v>      -0.37500000       0.25000000       0.50000000 </v>
   <v>      -0.25000000       0.25000000       0.50000000 </v>
   <v>       0.37500000       0.37500000       0.50000000 </v>
   <v>       0.50000000       0.37500000       0.50000000 </v>
   <v>      -0.37500000       0.37500000       0.50000000 </v>
   <v>       0.50000000       0.50000000       0.50000000 </v>
  </varray>
  <varray name="weights" >
   <v>       0.00195312 </v>
   <v>       0.00781250 </v>
   <v>       0.00781250 </v>
   <v>       0.00781250 </v>
   <v>       0.00390625 </v>
   <v>       0.00390625 </v>
   <v>       0.00781250 </v>
   <v>       0.00781250 </v>
   <v>       0.00781250 </v>
   <v>       0.00781250 </v>
   <v>       0.00781250 </v>
   <v>       0.00390625 </v>
   <v>       0.00390625 </v>
   <v>       0.00781250 </v>
   <v>       0.00781250 </v>
   <v>       0.00781250 </v>
   <v>       0.00390625 </v>
   <v>       0.00390625 </v>
   <v>       0.00781250 </v>
   <v>       0.00390625 </v>
   <v>       0.00195312 </v>
   <v>       0.00390625 </v>
   <v>       0.01562500 </v>
   <v>       0.01562500 </v>
   <v>       0.01562500 </v>
   <v>       0.00781250 </v>
   <v>       0.00781250 </v>
   <v>       0.01562500 </v>
   <v>       0.01562500 </v>
   <v>       0.01562500 </v>
   <v>       0.01562500 </v>
   <v>       0.01562500 </v>
   <v>       0.00781250 </v>
   <v>       0.00781250 </v>
   <v>       0.01562500 </v>
   <v>       0.01562500 </v>
   <v>       0.01562500 </v>
   <v>       0.00781250 </v>
   <v>       0.00781250 </v>
   <v>       0.01562500 </v>
   <v>       0.00781250 </v>
   <v>       0.00390625 </v>
   <v>       0.00390625 </v>
   <v>       0.01562500 </v>
   <v>       0.01562500 </v>
   <v>       0.01562500 </v>
   <v>       0.00781250 </v>
   <v>       0.00781250 </v>
   <v>       0.01562500 </v>
   <v>       0.01562500 </v>
   <v>       0.01562500 </v>
   <v>       0.01562500 </v>
   <v>       0.01562500 </v>
   <v>       0.00781250 </v>
   <v>       0.00781250 </v>
   <v>       0.01562500 </v>
   <v>       0.01562500 </v>
   <v>       0.01562500 </v>
   <v>       0.00781250 </v>
   <v>       0.00781250 </v>
   <v>       0.01562500 </v>
   <v>       0.00781250 </v>
   <v>       0.00390625 </v>
   <v>       0.00390625 </v>
   <v>       0.01562500 </v>
   <v>       0.01562500 </v>
   <v>       0.01562500 </v>
   <v>       0.00781250 </v>
   <v>       0.00781250 </v>
   <v>       0.01562500 </v>
   <v>       0.01562500 </v>
   <v>       0.01562500 </v>
   <v>       0.01562500 </v>
   <v>       0.01562500 </v>
   <v>       0.00781250 </v>
   <v>       0.00781250 </v>
   <v>       0.01562500 </v>
   <v>       0.01562500 </v>
   <v>       0.01562500 </v>
   <v>       0.00781250 </v>
   <v>       0.00781250 </v>
   <v>       0.01562500 </v>
   <v>       0.00781250 </v>
   <v>       0.00390625 </v>
   <v>       0.00195312 </v>
   <v>       0.00781250 </v>
   <v>       0.00781250 </v>
   <v>       0.00781250 </v>
   <v>       0.00390625 </v>
   <v>       0.00390625 </v>
   <v>       0.00781250 </v>
   <v>       0.00781250 </v>
   <v>       0.00781250 </v>
   <v>       0.00781250 </v>
   <v>       0.00781250 </v>
   <v>       0.00390625 </v>
   <v>       0.00390625 </v>
   <v>       0.00781250 </v>
   <v>       0.00781250 </v>
   <v>       0.00781250 </v>
   <v>       0.00390625 </v>
   <v>       0.00390625 </v>
   <v>       0.00781250 </v>
   <v>       0.00390625 </v>
   <v>       0.00195312 </v>
  </varray>
  <varray name="tetrahedronlist"  type="int" >
   <v type="int" >        4        1        2        2       23 </v>
   <v type="int" >        4        2        2        6       23 </v>
   <v type="int" >        4        2        6       23       27 </v>
   <v type="int" >        4        1        2       22       23 </v>
   <v type="int" >        4        2       22       23       23 </v>
   <v type="int" >        4        2       23       23       27 </v>
   <v type="int" >        4        2        3        6       24 </v>
   <v type="int" >        4        3        6        7       24 </v>
   <v type="int" >        4        6        7       24       28 </v>
   <v type="int" >        4        2        6       23       24 </v>
   <v type="int" >        4        6       23       24       27 </v>
   <v type="int" >        4        6       24       27       28 </v>
   <v type="int" >        4        3        4        7       25 </v>
   <v type="int" >        4        4        7        8       25 </v>
   <v type="int" >        4        7        8       25       29 </v>
   <v type="int" >        4        3        7       24       25 </v>
   <v type="int" >        4        7       24       25       28 </v>
   <v type="int" >        4        7       25       28       29 </v>
   <v type="int" >        4        4        5        8       26 </v>
   <v type="int" >        4        5        8        9       26 </v>
   <v type="int" >        4        8        9       26       30 </v>
   <v type="int" >        4        4        8       25       26 </v>
   <v type="int" >        4        8       25       26       29 </v>
   <v type="int" >        4        8       26       29       30 </v>
   <v type="int" >        4        4        5        9       25 </v>
   <v type="int" >        4        4        9       10       25 </v>
   <v type="int" >        4        9       10       25       31 </v>
   <v type="int" >        4        5        9       25       26 </v>
   <v type="int" >        4        9       25       26       30 </v>
   <v type="int" >        4        9       25       30       31 </v>
   <v type="int" >        4        3        4       10       24 </v>
   <v type="int" >        4        3       10       11       24 </v>
   <v type="int" >        4       10       11       24       32 </v>
   <v type="int" >        4        4       10       24       25 </v>
   <v type="int" >        4       10       24       25       31 </v>
   <v type="int" >        4       10       24       31       32 </v>
   <v type="int" >        4        2        3       11       23 </v>
   <v type="int" >        4        2       11       12       23 </v>
   <v type="int" >        4       11       12       23       33 </v>
   <v type="int" >        4        3       11       23       24 </v>
   <v type="int" >        4       11       23       24       32 </v>
   <v type="int" >        4       11       23       32       33 </v>
   <v type="int" >        4        1        2       12       22 </v>
   <v type="int" >        4        2       12       22       23 </v>
   <v type="int" >        4       12       22       23       33 </v>
   <v type="int" >        4        2        3        6       27 </v>
   <v type="int" >        4        3        6        7       27 </v>
   <v type="int" >        4        3        7       27       28 </v>
   <v type="int" >        4        2        3       23       27 </v>
   <v type="int" >        4        3       23       24       27 </v>
   <v type="int" >        4        3       24       27       28 </v>
   <v type="int" >        4        6        7        7       28 </v>
   <v type="int" >        4        7        7       13       28 </v>
   <v type="int" >        4        7       13       28       34 </v>
   <v type="int" >        4        6        7       27       28 </v>
   <v type="int" >        4        7       27       28       28 </v>
   <v type="int" >        4        7       28       28       34 </v>
   <v type="int" >        4        7        8       13       29 </v>
   <v type="int" >        4        8       13       14       29 </v>
   <v type="int" >        4       13       14       29       35 </v>
   <v type="int" >        4        7       13       28       29 </v>
   <v type="int" >        4       13       28       29       34 </v>
   <v type="int" >        4       13       29       34       35 </v>
   <v type="int" >        4        8        9       14       30 </v>
   <v type="int" >        4        9       14       15       30 </v>
   <v type="int" >        4       14       15       30       36 </v>
   <v type="int" >        4        8       14       29       30 </v>
   <v type="int" >        4       14       29       30       35 </v>
   <v type="int" >        4       14       30       35       36 </v>
   <v type="int" >        4        9       10       15       31 </v>
   <v type="int" >        4       10       15       16       31 </v>
   <v type="int" >        4       15       16       31       37 </v>
   <v type="int" >        4        9       15       30       31 </v>
   <v type="int" >        4       15       30       31       36 </v>
   <v type="int" >        4       15       31       36       37 </v>
   <v type="int" >        4       10       11       16       32 </v>
   <v type="int" >        4       11       16       17       32 </v>
   <v type="int" >        4       16       17       32       38 </v>
   <v type="int" >        4       10       16       31       32 </v>
   <v type="int" >        4       16       31       32       37 </v>
   <v type="int" >        4       16       32       37       38 </v>
   <v type="int" >        4       11       12       17       33 </v>
   <v type="int" >        4       11       17       32       33 </v>
   <v type="int" >        4       17       32       33       38 </v>
   <v type="int" >        4        3        4        7       28 </v>
   <v type="int" >        4        4        7        8       28 </v>
   <v type="int" >        4        4        8       28       29 </v>
   <v type="int" >        4        3        4       24       28 </v>
   <v type="int" >        4        4       24       25       28 </v>
   <v type="int" >        4        4       25       28       29 </v>
   <v type="int" >        4        7        8       13       34 </v>
   <v type="int" >        4        8       13       14       34 </v>
   <v type="int" >        4        8       14       34       35 </v>
   <v type="int" >        4        7        8       28       34 </v>
   <v type="int" >        4        8       28       29       34 </v>
   <v type="int" >        4        8       29       34       35 </v>
   <v type="int" >        4       13       14       14       35 </v>
   <v type="int" >        4       14       14       18       35 </v>
   <v type="int" >        4       14       18       35       39 </v>
   <v type="int" >        4       13       14       34       35 </v>
   <v type="int" >        4       14       34       35       35 </v>
   <v type="int" >        4       14       35       35       39 </v>
   <v type="int" >        4       14       15       18       36 </v>
   <v type="int" >        4       15       18       19       36 </v>
   <v type="int" >        4       18       19       36       40 </v>
   <v type="int" >        4       14       18       35       36 </v>
   <v type="int" >        4       18       35       36       39 </v>
   <v type="int" >        4       18       36       39       40 </v>
   <v type="int" >        4       15       16       19       37 </v>
   <v type="int" >        4       16       19       20       37 </v>
   <v type="int" >        4       19       20       37       41 </v>
   <v type="int" >        4       15       19       36       37 </v>
   <v type="int" >        4       19       36       37       40 </v>
   <v type="int" >        4       19       37       40       41 </v>
   <v type="int" >        4       16       17       20       38 </v>
   <v type="int" >        4       16       20       37       38 </v>
   <v type="int" >        4       20       37       38       41 </v>
   <v type="int" >        4        4        5        8       29 </v>
   <v type="int" >        4        5        8        9       29 </v>
   <v type="int" >        4        5        9       29       30 </v>
   <v type="int" >        4        4        5       25       29 </v>
   <v type="int" >        4        5       25       26       29 </v>
   <v type="int" >        4        5       26       29       30 </v>
   <v type="int" >        4        8        9       14       35 </v>
   <v type="int" >        4        9       14       15       35 </v>
   <v type="int" >        4        9       15       35       36 </v>
   <v type="int" >        4        8        9       29       35 </v>
   <v type="int" >        4        9       29       30       35 </v>
   <v type="int" >        4        9       30       35       36 </v>
   <v type="int" >        4       14       15       18       39 </v>
   <v type="int" >        4       15       18       19       39 </v>
   <v type="int" >        4       15       19       39       40 </v>
   <v type="int" >        4       14       15       35       39 </v>
   <v type="int" >        4       15       35       36       39 </v>
   <v type="int" >        4       15       36       39       40 </v>
   <v type="int" >        4       18       19       19       40 </v>
   <v type="int" >        4       19       19       21       40 </v>
   <v type="int" >        4       19       21       40       42 </v>
   <v type="int" >        4       18       19       39       40 </v>
   <v type="int" >        4       19       39       40       40 </v>
   <v type="int" >        4       19       40       40       42 </v>
   <v type="int" >        4       19       20       21       41 </v>
   <v type="int" >        4       19       21       40       41 </v>
   <v type="int" >        4       21       40       41       42 </v>
   <v type="int" >        4        4        5        9       30 </v>
   <v type="int" >        4        4        9       10       30 </v>
   <v type="int" >        4        4       10       30       31 </v>
   <v type="int" >        4        4        5       26       30 </v>
   <v type="int" >        4        4       25       26       30 </v>
   <v type="int" >        4        4       25       30       31 </v>
   <v type="int" >        4        9       10       15       36 </v>
   <v type="int" >        4       10       15       16       36 </v>
   <v type="int" >        4       10       16       36       37 </v>
   <v type="int" >        4        9       10       30       36 </v>
   <v type="int" >        4       10       30       31       36 </v>
   <v type="int" >        4       10       31       36       37 </v>
   <v type="int" >        4       15       16       19       40 </v>
   <v type="int" >        4       16       19       20       40 </v>
   <v type="int" >        4       16       20       40       41 </v>
   <v type="int" >        4       15       16       36       40 </v>
   <v type="int" >        4       16       36       37       40 </v>
   <v type="int" >        4       16       37       40       41 </v>
   <v type="int" >        4       19       20       21       42 </v>
   <v type="int" >        4       19       20       40       42 </v>
   <v type="int" >        4       20       40       41       42 </v>
   <v type="int" >        4        3        4       10       31 </v>
   <v type="int" >        4        3       10       11       31 </v>
   <v type="int" >        4        3       11       31       32 </v>
   <v type="int" >        4        3        4       25       31 </v>
   <v type="int" >        4        3       24       25       31 </v>
   <v type="int" >        4        3       24       31       32 </v>
   <v type="int" >        4       10       11       16       37 </v>
   <v type="int" >        4       11       16       17       37 </v>
   <v type="int" >        4       11       17       37       38 </v>
   <v type="int" >        4       10       11       31       37 </v>
   <v type="int" >        4       11       31       32       37 </v>
   <v type="int" >        4       11       32       37       38 </v>
   <v type="int" >        4       16       17       20       41 </v>
   <v type="int" >        4       16       17       37       41 </v>
   <v type="int" >        4       17       37       38       41 </v>
   <v type="int" >        4        2        3       11       32 </v>
   <v type="int" >        4        2       11       12       32 </v>
   <v type="int" >        4        2       12       32       33 </v>
   <v type="int" >        4        2        3       24       32 </v>
   <v type="int" >        4        2       23       24       32 </v>
   <v type="int" >        4        2       23       32       33 </v>
   <v type="int" >        4       11       12       17       38 </v>
   <v type="int" >        4       11       12       32       38 </v>
   <v type="int" >        4       12       32       33       38 </v>
   <v type="int" >        4        1        2       12       33 </v>
   <v type="int" >        4        1        2       23       33 </v>
   <v type="int" >        4        1       22       23       33 </v>
   <v type="int" >        4       22       23       23       44 </v>
   <v type="int" >        4       23       23       27       44 </v>
   <v type="int" >        4       23       27       44       48 </v>
   <v type="int" >        4       22       23       43       44 </v>
   <v type="int" >        4       23       43       44       44 </v>
   <v type="int" >        4       23       44       44       48 </v>
   <v type="int" >        4       23       24       27       45 </v>
   <v type="int" >        4       24       27       28       45 </v>
   <v type="int" >        4       27       28       45       49 </v>
   <v type="int" >        4       23       27       44       45 </v>
   <v type="int" >        4       27       44       45       48 </v>
   <v type="int" >        4       27       45       48       49 </v>
   <v type="int" >        4       24       25       28       46 </v>
   <v type="int" >        4       25       28       29       46 </v>
   <v type="int" >        4       28       29       46       50 </v>
   <v type="int" >        4       24       28       45       46 </v>
   <v type="int" >        4       28       45       46       49 </v>
   <v type="int" >        4       28       46       49       50 </v>
   <v type="int" >        4       25       26       29       47 </v>
   <v type="int" >        4       26       29       30       47 </v>
   <v type="int" >        4       29       30       47       51 </v>
   <v type="int" >        4       25       29       46       47 </v>
   <v type="int" >        4       29       46       47       50 </v>
   <v type="int" >        4       29       47       50       51 </v>
   <v type="int" >        4       25       26       30       46 </v>
   <v type="int" >        4       25       30       31       46 </v>
   <v type="int" >        4       30       31       46       52 </v>
   <v type="int" >        4       26       30       46       47 </v>
   <v type="int" >        4       30       46       47       51 </v>
   <v type="int" >        4       30       46       51       52 </v>
   <v type="int" >        4       24       25       31       45 </v>
   <v type="int" >        4       24       31       32       45 </v>
   <v type="int" >        4       31       32       45       53 </v>
   <v type="int" >        4       25       31       45       46 </v>
   <v type="int" >        4       31       45       46       52 </v>
   <v type="int" >        4       31       45       52       53 </v>
   <v type="int" >        4       23       24       32       44 </v>
   <v type="int" >        4       23       32       33       44 </v>
   <v type="int" >        4       32       33       44       54 </v>
   <v type="int" >        4       24       32       44       45 </v>
   <v type="int" >        4       32       44       45       53 </v>
   <v type="int" >        4       32       44       53       54 </v>
   <v type="int" >        4       22       23       33       43 </v>
   <v type="int" >        4       23       33       43       44 </v>
   <v type="int" >        4       33       43       44       54 </v>
   <v type="int" >        4       23       24       27       48 </v>
   <v type="int" >        4       24       27       28       48 </v>
   <v type="int" >        4       24       28       48       49 </v>
   <v type="int" >        4       23       24       44       48 </v>
   <v type="int" >        4       24       44       45       48 </v>
   <v type="int" >        4       24       45       48       49 </v>
   <v type="int" >        4       27       28       28       49 </v>
   <v type="int" >        4       28       28       34       49 </v>
   <v type="int" >        4       28       34       49       55 </v>
   <v type="int" >        4       27       28       48       49 </v>
   <v type="int" >        4       28       48       49       49 </v>
   <v type="int" >        4       28       49       49       55 </v>
   <v type="int" >        4       28       29       34       50 </v>
   <v type="int" >        4       29       34       35       50 </v>
   <v type="int" >        4       34       35       50       56 </v>
   <v type="int" >        4       28       34       49       50 </v>
   <v type="int" >        4       34       49       50       55 </v>
   <v type="int" >        4       34       50       55       56 </v>
   <v type="int" >        4       29       30       35       51 </v>
   <v type="int" >        4       30       35       36       51 </v>
   <v type="int" >        4       35       36       51       57 </v>
   <v type="int" >        4       29       35       50       51 </v>
   <v type="int" >        4       35       50       51       56 </v>
   <v type="int" >        4       35       51       56       57 </v>
   <v type="int" >        4       30       31       36       52 </v>
   <v type="int" >        4       31       36       37       52 </v>
   <v type="int" >        4       36       37       52       58 </v>
   <v type="int" >        4       30       36       51       52 </v>
   <v type="int" >        4       36       51       52       57 </v>
   <v type="int" >        4       36       52       57       58 </v>
   <v type="int" >        4       31       32       37       53 </v>
   <v type="int" >        4       32       37       38       53 </v>
   <v type="int" >        4       37       38       53       59 </v>
   <v type="int" >        4       31       37       52       53 </v>
   <v type="int" >        4       37       52       53       58 </v>
   <v type="int" >        4       37       53       58       59 </v>
   <v type="int" >        4       32       33       38       54 </v>
   <v type="int" >        4       32       38       53       54 </v>
   <v type="int" >        4       38       53       54       59 </v>
   <v type="int" >        4       24       25       28       49 </v>
   <v type="int" >        4       25       28       29       49 </v>
   <v type="int" >        4       25       29       49       50 </v>
   <v type="int" >        4       24       25       45       49 </v>
   <v type="int" >        4       25       45       46       49 </v>
   <v type="int" >        4       25       46       49       50 </v>
   <v type="int" >        4       28       29       34       55 </v>
   <v type="int" >        4       29       34       35       55 </v>
   <v type="int" >        4       29       35       55       56 </v>
   <v type="int" >        4       28       29       49       55 </v>
   <v type="int" >        4       29       49       50       55 </v>
   <v type="int" >        4       29       50       55       56 </v>
   <v type="int" >        4       34       35       35       56 </v>
   <v type="int" >        4       35       35       39       56 </v>
   <v type="int" >        4       35       39       56       60 </v>
   <v type="int" >        4       34       35       55       56 </v>
   <v type="int" >        4       35       55       56       56 </v>
   <v type="int" >        4       35       56       56       60 </v>
   <v type="int" >        4       35       36       39       57 </v>
   <v type="int" >        4       36       39       40       57 </v>
   <v type="int" >        4       39       40       57       61 </v>
   <v type="int" >        4       35       39       56       57 </v>
   <v type="int" >        4       39       56       57       60 </v>
   <v type="int" >        4       39       57       60       61 </v>
   <v type="int" >        4       36       37       40       58 </v>
   <v type="int" >        4       37       40       41       58 </v>
   <v type="int" >        4       40       41       58       62 </v>
   <v type="int" >        4       36       40       57       58 </v>
   <v type="int" >        4       40       57       58       61 </v>
   <v type="int" >        4       40       58       61       62 </v>
   <v type="int" >        4       37       38       41       59 </v>
   <v type="int" >        4       37       41       58       59 </v>
   <v type="int" >        4       41       58       59       62 </v>
   <v type="int" >        4       25       26       29       50 </v>
   <v type="int" >        4       26       29       30       50 </v>
   <v type="int" >        4       26       30       50       51 </v>
   <v type="int" >        4       25       26       46       50 </v>
   <v type="int" >        4       26       46       47       50 </v>
   <v type="int" >        4       26       47       50       51 </v>
   <v type="int" >        4       29       30       35       56 </v>
   <v type="int" >        4       30       35       36       56 </v>
   <v type="int" >        4       30       36       56       57 </v>
   <v type="int" >        4       29       30       50       56 </v>
   <v type="int" >        4       30       50       51       56 </v>
   <v type="int" >        4       30       51       56       57 </v>
   <v type="int" >        4       35       36       39       60 </v>
   <v type="int" >        4       36       39       40       60 </v>
   <v type="int" >        4       36       40       60       61 </v>
   <v type="int" >        4       35       36       56       60 </v>
   <v type="int" >        4       36       56       57       60 </v>
   <v type="int" >        4       36       57       60       61 </v>
   <v type="int" >        4       39       40       40       61 </v>
   <v type="int" >        4       40       40       42       61 </v>
   <v type="int" >        4       40       42       61       63 </v>
   <v type="int" >        4       39       40       60       61 </v>
   <v type="int" >        4       40       60       61       61 </v>
   <v type="int" >        4       40       61       61       63 </v>
   <v type="int" >        4       40       41       42       62 </v>
   <v type="int" >        4       40       42       61       62 </v>
   <v type="int" >        4       42       61       62       63 </v>
   <v type="int" >        4       25       26       30       51 </v>
   <v type="int" >        4       25       30       31       51 </v>
   <v type="int" >        4       25       31       51       52 </v>
   <v type="int" >        4       25       26       47       51 </v>
   <v type="int" >        4       25       46       47       51 </v>
   <v type="int" >        4       25       46       51       52 </v>
   <v type="int" >        4       30       31       36       57 </v>
   <v type="int" >        4       31       36       37       57 </v>
   <v type="int" >        4       31       37       57       58 </v>
   <v type="int" >        4       30       31       51       57 </v>
   <v type="int" >        4       31       51       52       57 </v>
   <v type="int" >        4       31       52       57       58 </v>
   <v type="int" >        4       36       37       40       61 </v>
   <v type="int" >        4       37       40       41       61 </v>
   <v type="int" >        4       37       41       61       62 </v>
   <v type="int" >        4       36       37       57       61 </v>
   <v type="int" >        4       37       57       58       61 </v>
   <v type="int" >        4       37       58       61       62 </v>
   <v type="int" >        4       40       41       42       63 </v>
   <v type="int" >        4       40       41       61       63 </v>
   <v type="int" >        4       41       61       62       63 </v>
   <v type="int" >        4       24       25       31       52 </v>
   <v type="int" >        4       24       31       32       52 </v>
   <v type="int" >        4       24       32       52       53 </v>
   <v type="int" >        4       24       25       46       52 </v>
   <v type="int" >        4       24       45       46       52 </v>
   <v type="int" >        4       24       45       52       53 </v>
   <v type="int" >        4       31       32       37       58 </v>
   <v type="int" >        4       32       37       38       58 </v>
   <v type="int" >        4       32       38       58       59 </v>
   <v type="int" >        4       31       32       52       58 </v>
   <v type="int" >        4       32       52       53       58 </v>
   <v type="int" >        4       32       53       58       59 </v>
   <v type="int" >        4       37       38       41       62 </v>
   <v type="int" >        4       37       38       58       62 </v>
   <v type="int" >        4       38       58       59       62 </v>
   <v type="int" >        4       23       24       32       53 </v>
   <v type="int" >        4       23       32       33       53 </v>
   <v type="int" >        4       23       33       53       54 </v>
   <v type="int" >        4       23       24       45       53 </v>
   <v type="int" >        4       23       44       45       53 </v>
   <v type="int" >        4       23       44       53       54 </v>
   <v type="int" >        4       32       33       38       59 </v>
   <v type="int" >        4       32       33       53       59 </v>
   <v type="int" >        4       33       53       54       59 </v>
   <v type="int" >        4       22       23       33       54 </v>
   <v type="int" >        4       22       23       44       54 </v>
   <v type="int" >        4       22       43       44       54 </v>
   <v type="int" >        4       43       44       44       65 </v>
   <v type="int" >        4       44       44       48       65 </v>
   <v type="int" >        4       44       48       65       69 </v>
   <v type="int" >        4       43       44       64       65 </v>
   <v type="int" >        4       44       64       65       65 </v>
   <v type="int" >        4       44       65       65       69 </v>
   <v type="int" >        4       44       45       48       66 </v>
   <v type="int" >        4       45       48       49       66 </v>
   <v type="int" >        4       48       49       66       70 </v>
   <v type="int" >        4       44       48       65       66 </v>
   <v type="int" >        4       48       65       66       69 </v>
   <v type="int" >        4       48       66       69       70 </v>
   <v type="int" >        4       45       46       49       67 </v>
   <v type="int" >        4       46       49       50       67 </v>
   <v type="int" >        4       49       50       67       71 </v>
   <v type="int" >        4       45       49       66       67 </v>
   <v type="int" >        4       49       66       67       70 </v>
   <v type="int" >        4       49       67       70       71 </v>
   <v type="int" >        4       46       47       50       68 </v>
   <v type="int" >        4       47       50       51       68 </v>
   <v type="int" >        4       50       51       68       72 </v>
   <v type="int" >        4       46       50       67       68 </v>
   <v type="int" >        4       50       67       68       71 </v>
   <v type="int" >        4       50       68       71       72 </v>
   <v type="int" >        4       46       47       51       67 </v>
   <v type="int" >        4       46       51       52       67 </v>
   <v type="int" >        4       51       52       67       73 </v>
   <v type="int" >        4       47       51       67       68 </v>
   <v type="int" >        4       51       67       68       72 </v>
   <v type="int" >        4       51       67       72       73 </v>
   <v type="int" >        4       45       46       52       66 </v>
   <v type="int" >        4       45       52       53       66 </v>
   <v type="int" >        4       52       53       66       74 </v>
   <v type="int" >        4       46       52       66       67 </v>
   <v type="int" >        4       52       66       67       73 </v>
   <v type="int" >        4       52       66       73       74 </v>
   <v type="int" >        4       44       45       53       65 </v>
   <v type="int" >        4       44       53       54       65 </v>
   <v type="int" >        4       53       54       65       75 </v>
   <v type="int" >        4       45       53       65       66 </v>
   <v type="int" >        4       53       65       66       74 </v>
   <v type="int" >        4       53       65       74       75 </v>
   <v type="int" >        4       43       44       54       64 </v>
   <v type="int" >        4       44       54       64       65 </v>
   <v type="int" >        4       54       64       65       75 </v>
   <v type="int" >        4       44       45       48       69 </v>
   <v type="int" >        4       45       48       49       69 </v>
   <v type="int" >        4       45       49       69       70 </v>
   <v type="int" >        4       44       45       65       69 </v>
   <v type="int" >        4       45       65       66       69 </v>
   <v type="int" >        4       45       66       69       70 </v>
   <v type="int" >        4       48       49       49       70 </v>
   <v type="int" >        4       49       49       55       70 </v>
   <v type="int" >        4       49       55       70       76 </v>
   <v type="int" >        4       48       49       69       70 </v>
   <v type="int" >        4       49       69       70       70 </v>
   <v type="int" >        4       49       70       70       76 </v>
   <v type="int" >        4       49       50       55       71 </v>
   <v type="int" >        4       50       55       56       71 </v>
   <v type="int" >        4       55       56       71       77 </v>
   <v type="int" >        4       49       55       70       71 </v>
   <v type="int" >        4       55       70       71       76 </v>
   <v type="int" >        4       55       71       76       77 </v>
   <v type="int" >        4       50       51       56       72 </v>
   <v type="int" >        4       51       56       57       72 </v>
   <v type="int" >        4       56       57       72       78 </v>
   <v type="int" >        4       50       56       71       72 </v>
   <v type="int" >        4       56       71       72       77 </v>
   <v type="int" >        4       56       72       77       78 </v>
   <v type="int" >        4       51       52       57       73 </v>
   <v type="int" >        4       52       57       58       73 </v>
   <v type="int" >        4       57       58       73       79 </v>
   <v type="int" >        4       51       57       72       73 </v>
   <v type="int" >        4       57       72       73       78 </v>
   <v type="int" >        4       57       73       78       79 </v>
   <v type="int" >        4       52       53       58       74 </v>
   <v type="int" >        4       53       58       59       74 </v>
   <v type="int" >        4       58       59       74       80 </v>
   <v type="int" >        4       52       58       73       74 </v>
   <v type="int" >        4       58       73       74       79 </v>
   <v type="int" >        4       58       74       79       80 </v>
   <v type="int" >        4       53       54       59       75 </v>
   <v type="int" >        4       53       59       74       75 </v>
   <v type="int" >        4       59       74       75       80 </v>
   <v type="int" >        4       45       46       49       70 </v>
   <v type="int" >        4       46       49       50       70 </v>
   <v type="int" >        4       46       50       70       71 </v>
   <v type="int" >        4       45       46       66       70 </v>
   <v type="int" >        4       46       66       67       70 </v>
   <v type="int" >        4       46       67       70       71 </v>
   <v type="int" >        4       49       50       55       76 </v>
   <v type="int" >        4       50       55       56       76 </v>
   <v type="int" >        4       50       56       76       77 </v>
   <v type="int" >        4       49       50       70       76 </v>
   <v type="int" >        4       50       70       71       76 </v>
   <v type="int" >        4       50       71       76       77 </v>
   <v type="int" >        4       55       56       56       77 </v>
   <v type="int" >        4       56       56       60       77 </v>
   <v type="int" >        4       56       60       77       81 </v>
   <v type="int" >        4       55       56       76       77 </v>
   <v type="int" >        4       56       76       77       77 </v>
   <v type="int" >        4       56       77       77       81 </v>
   <v type="int" >        4       56       57       60       78 </v>
   <v type="int" >        4       57       60       61       78 </v>
   <v type="int" >        4       60       61       78       82 </v>
   <v type="int" >        4       56       60       77       78 </v>
   <v type="int" >        4       60       77       78       81 </v>
   <v type="int" >        4       60       78       81       82 </v>
   <v type="int" >        4       57       58       61       79 </v>
   <v type="int" >        4       58       61       62       79 </v>
   <v type="int" >        4       61       62       79       83 </v>
   <v type="int" >        4       57       61       78       79 </v>
   <v type="int" >        4       61       78       79       82 </v>
   <v type="int" >        4       61       79       82       83 </v>
   <v type="int" >        4       58       59       62       80 </v>
   <v type="int" >        4       58       62       79       80 </v>
   <v type="int" >        4       62       79       80       83 </v>
   <v type="int" >        4       46       47       50       71 </v>
   <v type="int" >        4       47       50       51       71 </v>
   <v type="int" >        4       47       51       71       72 </v>
   <v type="int" >        4       46       47       67       71 </v>
   <v type="int" >        4       47       67       68       71 </v>
   <v type="int" >        4       47       68       71       72 </v>
   <v type="int" >        4       50       51       56       77 </v>
   <v type="int" >        4       51       56       57       77 </v>
   <v type="int" >        4       51       57       77       78 </v>
   <v type="int" >        4       50       51       71       77 </v>
   <v type="int" >        4       51       71       72       77 </v>
   <v type="int" >        4       51       72       77       78 </v>
   <v type="int" >        4       56       57       60       81 </v>
   <v type="int" >        4       57       60       61       81 </v>
   <v type="int" >        4       57       61       81       82 </v>
   <v type="int" >        4       56       57       77       81 </v>
   <v type="int" >        4       57       77       78       81 </v>
   <v type="int" >        4       57       78       81       82 </v>
   <v type="int" >        4       60       61       61       82 </v>
   <v type="int" >        4       61       61       63       82 </v>
   <v type="int" >        4       61       63       82       84 </v>
   <v type="int" >        4       60       61       81       82 </v>
   <v type="int" >        4       61       81       82       82 </v>
   <v type="int" >        4       61       82       82       84 </v>
   <v type="int" >        4       61       62       63       83 </v>
   <v type="int" >        4       61       63       82       83 </v>
   <v type="int" >        4       63       82       83       84 </v>
   <v type="int" >        4       46       47       51       72 </v>
   <v type="int" >        4       46       51       52       72 </v>
   <v type="int" >        4       46       52       72       73 </v>
   <v type="int" >        4       46       47       68       72 </v>
   <v type="int" >        4       46       67       68       72 </v>
   <v type="int" >        4       46       67       72       73 </v>
   <v type="int" >        4       51       52       57       78 </v>
   <v type="int" >        4       52       57       58       78 </v>
   <v type="int" >        4       52       58       78       79 </v>
   <v type="int" >        4       51       52       72       78 </v>
   <v type="int" >        4       52       72       73       78 </v>
   <v type="int" >        4       52       73       78       79 </v>
   <v type="int" >        4       57       58       61       82 </v>
   <v type="int" >        4       58       61       62       82 </v>
   <v type="int" >        4       58       62       82       83 </v>
   <v type="int" >        4       57       58       78       82 </v>
   <v type="int" >        4       58       78       79       82 </v>
   <v type="int" >        4       58       79       82       83 </v>
   <v type="int" >        4       61       62       63       84 </v>
   <v type="int" >        4       61       62       82       84 </v>
   <v type="int" >        4       62       82       83       84 </v>
   <v type="int" >        4       45       46       52       73 </v>
   <v type="int" >        4       45       52       53       73 </v>
   <v type="int" >        4       45       53       73       74 </v>
   <v type="int" >        4       45       46       67       73 </v>
   <v type="int" >        4       45       66       67       73 </v>
   <v type="int" >        4       45       66       73       74 </v>
   <v type="int" >        4       52       53       58       79 </v>
   <v type="int" >        4       53       58       59       79 </v>
   <v type="int" >        4       53       59       79       80 </v>
   <v type="int" >        4       52       53       73       79 </v>
   <v type="int" >        4       53       73       74       79 </v>
   <v type="int" >        4       53       74       79       80 </v>
   <v type="int" >        4       58       59       62       83 </v>
   <v type="int" >        4       58       59       79       83 </v>
   <v type="int" >        4       59       79       80       83 </v>
   <v type="int" >        4       44       45       53       74 </v>
   <v type="int" >        4       44       53       54       74 </v>
   <v type="int" >        4       44       54       74       75 </v>
   <v type="int" >        4       44       45       66       74 </v>
   <v type="int" >        4       44       65       66       74 </v>
   <v type="int" >        4       44       65       74       75 </v>
   <v type="int" >        4       53       54       59       80 </v>
   <v type="int" >        4       53       54       74       80 </v>
   <v type="int" >        4       54       74       75       80 </v>
   <v type="int" >        4       43       44       54       75 </v>
   <v type="int" >        4       43       44       65       75 </v>
   <v type="int" >        4       43       64       65       75 </v>
   <v type="int" >        4       64       65       65       86 </v>
   <v type="int" >        4       65       65       69       86 </v>
   <v type="int" >        4       65       69       86       90 </v>
   <v type="int" >        4       64       65       85       86 </v>
   <v type="int" >        4       65       85       86       86 </v>
   <v type="int" >        4       65       86       86       90 </v>
   <v type="int" >        4       65       66       69       87 </v>
   <v type="int" >        4       66       69       70       87 </v>
   <v type="int" >        4       69       70       87       91 </v>
   <v type="int" >        4       65       69       86       87 </v>
   <v type="int" >        4       69       86       87       90 </v>
   <v type="int" >        4       69       87       90       91 </v>
   <v type="int" >        4       66       67       70       88 </v>
   <v type="int" >        4       67       70       71       88 </v>
   <v type="int" >        4       70       71       88       92 </v>
   <v type="int" >        4       66       70       87       88 </v>
   <v type="int" >        4       70       87       88       91 </v>
   <v type="int" >        4       70       88       91       92 </v>
   <v type="int" >        4       67       68       71       89 </v>
   <v type="int" >        4       68       71       72       89 </v>
   <v type="int" >        4       71       72       89       93 </v>
   <v type="int" >        4       67       71       88       89 </v>
   <v type="int" >        4       71       88       89       92 </v>
   <v type="int" >        4       71       89       92       93 </v>
   <v type="int" >        4       67       68       72       88 </v>
   <v type="int" >        4       67       72       73       88 </v>
   <v type="int" >        4       72       73       88       94 </v>
   <v type="int" >        4       68       72       88       89 </v>
   <v type="int" >        4       72       88       89       93 </v>
   <v type="int" >        4       72       88       93       94 </v>
   <v type="int" >        4       66       67       73       87 </v>
   <v type="int" >        4       66       73       74       87 </v>
   <v type="int" >        4       73       74       87       95 </v>
   <v type="int" >        4       67       73       87       88 </v>
   <v type="int" >        4       73       87       88       94 </v>
   <v type="int" >        4       73       87       94       95 </v>
   <v type="int" >        4       65       66       74       86 </v>
   <v type="int" >        4       65       74       75       86 </v>
   <v type="int" >        4       74       75       86       96 </v>
   <v type="int" >        4       66       74       86       87 </v>
   <v type="int" >        4       74       86       87       95 </v>
   <v type="int" >        4       74       86       95       96 </v>
   <v type="int" >        4       64       65       75       85 </v>
   <v type="int" >        4       65       75       85       86 </v>
   <v type="int" >        4       75       85       86       96 </v>
   <v type="int" >        4       65       66       69       90 </v>
   <v type="int" >        4       66       69       70       90 </v>
   <v type="int" >        4       66       70       90       91 </v>
   <v type="int" >        4       65       66       86       90 </v>
   <v type="int" >        4       66       86       87       90 </v>
   <v type="int" >        4       66       87       90       91 </v>
   <v type="int" >        4       69       70       70       91 </v>
   <v type="int" >        4       70       70       76       91 </v>
   <v type="int" >        4       70       76       91       97 </v>
   <v type="int" >        4       69       70       90       91 </v>
   <v type="int" >        4       70       90       91       91 </v>
   <v type="int" >        4       70       91       91       97 </v>
   <v type="int" >        4       70       71       76       92 </v>
   <v type="int" >        4       71       76       77       92 </v>
   <v type="int" >        4       76       77       92       98 </v>
   <v type="int" >        4       70       76       91       92 </v>
   <v type="int" >        4       76       91       92       97 </v>
   <v type="int" >        4       76       92       97       98 </v>
   <v type="int" >        4       71       72       77       93 </v>
   <v type="int" >        4       72       77       78       93 </v>
   <v type="int" >        4       77       78       93       99 </v>
   <v type="int" >        4       71       77       92       93 </v>
   <v type="int" >        4       77       92       93       98 </v>
   <v type="int" >        4       77       93       98       99 </v>
   <v type="int" >        4       72       73       78       94 </v>
   <v type="int" >        4       73       78       79       94 </v>
   <v type="int" >        4       78       79       94      100 </v>
   <v type="int" >        4       72       78       93       94 </v>
   <v type="int" >        4       78       93       94       99 </v>
   <v type="int" >        4       78       94       99      100 </v>
   <v type="int" >        4       73       74       79       95 </v>
   <v type="int" >        4       74       79       80       95 </v>
   <v type="int" >        4       79       80       95      101 </v>
   <v type="int" >        4       73       79       94       95 </v>
   <v type="int" >        4       79       94       95      100 </v>
   <v type="int" >        4       79       95      100      101 </v>
   <v type="int" >        4       74       75       80       96 </v>
   <v type="int" >        4       74       80       95       96 </v>
   <v type="int" >        4       80       95       96      101 </v>
   <v type="int" >        4       66       67       70       91 </v>
   <v type="int" >        4       67       70       71       91 </v>
   <v type="int" >        4       67       71       91       92 </v>
   <v type="int" >        4       66       67       87       91 </v>
   <v type="int" >        4       67       87       88       91 </v>
   <v type="int" >        4       67       88       91       92 </v>
   <v type="int" >        4       70       71       76       97 </v>
   <v type="int" >        4       71       76       77       97 </v>
   <v type="int" >        4       71       77       97       98 </v>
   <v type="int" >        4       70       71       91       97 </v>
   <v type="int" >        4       71       91       92       97 </v>
   <v type="int" >        4       71       92       97       98 </v>
   <v type="int" >        4       76       77       77       98 </v>
   <v type="int" >        4       77       77       81       98 </v>
   <v type="int" >        4       77       81       98      102 </v>
   <v type="int" >        4       76       77       97       98 </v>
   <v type="int" >        4       77       97       98       98 </v>
   <v type="int" >        4       77       98       98      102 </v>
   <v type="int" >        4       77       78       81       99 </v>
   <v type="int" >        4       78       81       82       99 </v>
   <v type="int" >        4       81       82       99      103 </v>
   <v type="int" >        4       77       81       98       99 </v>
   <v type="int" >        4       81       98       99      102 </v>
   <v type="int" >        4       81       99      102      103 </v>
   <v type="int" >        4       78       79       82      100 </v>
   <v type="int" >        4       79       82       83      100 </v>
   <v type="int" >        4       82       83      100      104 </v>
   <v type="int" >        4       78       82       99      100 </v>
   <v type="int" >        4       82       99      100      103 </v>
   <v type="int" >        4       82      100      103      104 </v>
   <v type="int" >        4       79       80       83      101 </v>
   <v type="int" >        4       79       83      100      101 </v>
   <v type="int" >        4       83      100      101      104 </v>
   <v type="int" >        4       67       68       71       92 </v>
   <v type="int" >        4       68       71       72       92 </v>
   <v type="int" >        4       68       72       92       93 </v>
   <v type="int" >        4       67       68       88       92 </v>
   <v type="int" >        4       68       88       89       92 </v>
   <v type="int" >        4       68       89       92       93 </v>
   <v type="int" >        4       71       72       77       98 </v>
   <v type="int" >        4       72       77       78       98 </v>
   <v type="int" >        4       72       78       98       99 </v>
   <v type="int" >        4       71       72       92       98 </v>
   <v type="int" >        4       72       92       93       98 </v>
   <v type="int" >        4       72       93       98       99 </v>
   <v type="int" >        4       77       78       81      102 </v>
   <v type="int" >        4       78       81       82      102 </v>
   <v type="int" >        4       78       82      102      103 </v>
   <v type="int" >        4       77       78       98      102 </v>
   <v type="int" >        4       78       98       99      102 </v>
   <v type="int" >        4       78       99      102      103 </v>
   <v type="int" >        4       81       82       82      103 </v>
   <v type="int" >        4       82       82       84      103 </v>
   <v type="int" >        4       82       84      103      105 </v>
   <v type="int" >        4       81       82      102      103 </v>
   <v type="int" >        4       82      102      103      103 </v>
   <v type="int" >        4       82      103      103      105 </v>
   <v type="int" >        4       82       83       84      104 </v>
   <v type="int" >        4       82       84      103      104 </v>
   <v type="int" >        4       84      103      104      105 </v>
   <v type="int" >        4       67       68       72       93 </v>
   <v type="int" >        4       67       72       73       93 </v>
   <v type="int" >        4       67       73       93       94 </v>
   <v type="int" >        4       67       68       89       93 </v>
   <v type="int" >        4       67       88       89       93 </v>
   <v type="int" >        4       67       88       93       94 </v>
   <v type="int" >        4       72       73       78       99 </v>
   <v type="int" >        4       73       78       79       99 </v>
   <v type="int" >        4       73       79       99      100 </v>
   <v type="int" >        4       72       73       93       99 </v>
   <v type="int" >        4       73       93       94       99 </v>
   <v type="int" >        4       73       94       99      100 </v>
   <v type="int" >        4       78       79       82      103 </v>
   <v type="int" >        4       79       82       83      103 </v>
   <v type="int" >        4       79       83      103      104 </v>
   <v type="int" >        4       78       79       99      103 </v>
   <v type="int" >        4       79       99      100      103 </v>
   <v type="int" >        4       79      100      103      104 </v>
   <v type="int" >        4       82       83       84      105 </v>
   <v type="int" >        4       82       83      103      105 </v>
   <v type="int" >        4       83      103      104      105 </v>
   <v type="int" >        4       66       67       73       94 </v>
   <v type="int" >        4       66       73       74       94 </v>
   <v type="int" >        4       66       74       94       95 </v>
   <v type="int" >        4       66       67       88       94 </v>
   <v type="int" >        4       66       87       88       94 </v>
   <v type="int" >        4       66       87       94       95 </v>
   <v type="int" >        4       73       74       79      100 </v>
   <v type="int" >        4       74       79       80      100 </v>
   <v type="int" >        4       74       80      100      101 </v>
   <v type="int" >        4       73       74       94      100 </v>
   <v type="int" >        4       74       94       95      100 </v>
   <v type="int" >        4       74       95      100      101 </v>
   <v type="int" >        4       79       80       83      104 </v>
   <v type="int" >        4       79       80      100      104 </v>
   <v type="int" >        4       80      100      101      104 </v>
   <v type="int" >        4       65       66       74       95 </v>
   <v type="int" >        4       65       74       75       95 </v>
   <v type="int" >        4       65       75       95       96 </v>
   <v type="int" >        4       65       66       87       95 </v>
   <v type="int" >        4       65       86       87       95 </v>
   <v type="int" >        4       65       86       95       96 </v>
   <v type="int" >        4       74       75       80      101 </v>
   <v type="int" >        4       74       75       95      101 </v>
   <v type="int" >        4       75       95       96      101 </v>
   <v type="int" >        4       64       65       75       96 </v>
   <v type="int" >        4       64       65       86       96 </v>
   <v type="int" >        4       64       85       86       96 </v>
  </varray>
  <i name="volumeweight">      0.00032552 </i>
 </kpoints>
 <parameters>
  <separator name="general" >
   <i type="string" name="SYSTEM">SnSe</i>
   <i type="logical" name="LCOMPAT"> F  </i>
  </separator>
  <separator name="electronic" >
   <i type="string" name="PREC">accura</i>
   <i name="ENMAX">    600.00000000</i>
   <i name="ENAUG">    446.84200000</i>
   <i name="EDIFF">      0.00000010</i>
   <i type="int" name="IALGO">    38</i>
   <i type="int" name="IWAVPR">    11</i>
   <i type="int" name="NBANDS">    24</i>
   <i name="NELECT">     40.00000000</i>
   <i type="int" name="TURBO">     0</i>
   <i type="int" name="IRESTART">     0</i>
   <i type="int" name="NREBOOT">     0</i>
   <i type="int" name="NMIN">     0</i>
   <i name="EREF">      0.00000000</i>
   <separator name="electronic smearing" >
    <i type="int" name="ISMEAR">    -5</i>
    <i name="SIGMA">      0.20000000</i>
    <i name="KSPACING">      0.50000000</i>
    <i type="logical" name="KGAMMA"> T  </i>
   </separator>
   <separator name="electronic projectors" >
    <i type="logical" name="LREAL"> F  </i>
    <v name="ROPT">      0.00000000      0.00000000</v>
    <i type="int" name="LMAXPAW">  -100</i>
    <i type="int" name="LMAXMIX">     2</i>
    <i type="logical" name="NLSPLINE"> F  </i>
   </separator>
   <separator name="electronic startup" >
    <i type="int" name="ISTART">     0</i>
    <i type="int" name="ICHARG">     2</i>
    <i type="int" name="INIWAV">     1</i>
   </separator>
   <separator name="electronic spin" >
    <i type="int" name="ISPIN">     1</i>
    <i type="logical" name="LNONCOLLINEAR"> F  </i>
    <v name="MAGMOM">      1.00000000      1.00000000      1.00000000      1.00000000</v>
    <i name="NUPDOWN">     -1.00000000</i>
    <i type="logical" name="LSORBIT"> F  </i>
    <v name="SAXIS">      0.00000000      0.00000000      1.00000000</v>
    <i type="logical" name="LSPIRAL"> F  </i>
    <v name="QSPIRAL">      0.00000000      0.00000000      0.00000000</v>
    <i type="logical" name="LZEROZ"> F  </i>
   </separator>
   <separator name="electronic exchange-correlation" >
    <i type="logical" name="LASPH"> F  </i>
    <i type="logical" name="LMETAGGA"> F  </i>
   </separator>
   <separator name="electronic convergence" >
    <i type="int" name="NELM">    60</i>
    <i type="int" name="NELMDL">    -5</i>
    <i type="int" name="NELMIN">     2</i>
    <i name="ENINI">    600.00000000</i>
    <separator name="electronic convergence detail" >
     <i type="logical" name="LDIAG"> T  </i>
     <i type="logical" name="LSUBROT"> F  </i>
     <i name="WEIMIN">      0.00100000</i>
     <i name="EBREAK">      0.00000000</i>
     <i name="DEPER">      0.30000000</i>
     <i type="int" name="NRMM">     4</i>
     <i name="TIME">      0.40000000</i>
    </separator>
   </separator>
   <separator name="electronic mixer" >
    <i name="AMIX">      0.40000000</i>
    <i name="BMIX">      1.00000000</i>
    <i name="AMIN">      0.10000000</i>
    <i name="AMIX_MAG">      1.60000000</i>
    <i name="BMIX_MAG">      1.00000000</i>
    <separator name="electronic mixer details" >
     <i type="int" name="IMIX">     4</i>
     <i type="logical" name="MIXFIRST"> F  </i>
     <i type="int" name="MAXMIX">   -45</i>
     <i name="WC">    100.00000000</i>
     <i type="int" name="INIMIX">     1</i>
     <i type="int" name="MIXPRE">     1</i>
     <i type="int" name="MREMOVE">     5</i>
    </separator>
   </separator>
   <separator name="electronic dipolcorrection" >
    <i type="logical" name="LDIPOL"> F  </i>
    <i type="logical" name="LMONO"> F  </i>
    <i type="int" name="IDIPOL">     0</i>
    <i name="EPSILON">      1.00000000</i>
    <v name="DIPOL">   -100.00000000   -100.00000000   -100.00000000</v>
    <i name="EFIELD">      0.00000000</i>
   </separator>
  </separator>
  <separator name="grids" >
   <i type="int" name="NGX">    50</i>
   <i type="int" name="NGY">    50</i>
   <i type="int" name="NGZ">    36</i>
   <i type="int" name="NGXF">   100</i>
   <i type="int" name="NGYF">   100</i>
   <i type="int" name="NGZF">    72</i>
   <i type="logical" name="ADDGRID"> F  </i>
  </separator>
  <separator name="ionic" >
   <i type="int" name="NSW">     1</i>
   <i type="int" name="IBRION">     8</i>
   <i type="int" name="MDALGO">     0</i>
   <i type="int" name="ISIF">     2</i>
   <i name="PSTRESS">      0.00000000</i>
   <i name="EDIFFG">     -0.00100000</i>
   <i type="int" name="NFREE">     0</i>
   <i name="POTIM">      0.50000000</i>
   <i name="SMASS">     -3.00000000</i>
   <i name="SCALEE">      1.00000000</i>
  </separator>
  <separator name="ionic md" >
   <i name="TEBEG">      0.00010000</i>
   <i name="TEEND">      0.00010000</i>
   <i type="int" name="NBLOCK">     1</i>
   <i type="int" name="KBLOCK">     1</i>
   <i type="int" name="NPACO">   256</i>
   <i name="APACO">     16.00000000</i>
  </separator>
  <separator name="symmetry" >
   <i type="int" name="ISYM">     2</i>
   <i name="SYMPREC">      0.00001000</i>
  </separator>
  <separator name="dos" >
   <i type="int" name="LORBIT">     0</i>
   <v name="RWIGS">     -1.00000000     -1.00000000</v>
   <i type="int" name="NEDOS">   301</i>
   <i name="EMIN">     10.00000000</i>
   <i name="EMAX">    -10.00000000</i>
   <i name="EFERMI">      0.00000000</i>
  </separator>
  <separator name="writing" >
   <i type="int" name="NWRITE">     2</i>
   <i type="logical" name="LWAVE"> T  </i>
   <i type="logical" name="LDOWNSAMPLE"> F  </i>
   <i type="logical" name="LCHARG"> T  </i>
   <i type="logical" name="LPARD"> F  </i>
   <i type="logical" name="LVTOT"> F  </i>
   <i type="logical" name="LVHAR"> F  </i>
   <i type="logical" name="LELF"> F  </i>
   <i type="logical" name="LOPTICS"> F  </i>
   <v name="STM">      0.00000000      0.00000000      0.00000000      0.00000000      0.00000000      0.00000000      0.00000000</v>
  </separator>
  <separator name="performance" >
   <i type="int" name="NPAR">     8</i>
   <i type="int" name="NSIM">     4</i>
   <i type="int" name="NBLK">    -1</i>
   <i type="logical" name="LPLANE"> T  </i>
   <i type="logical" name="LSCALAPACK"> T  </i>
   <i type="logical" name="LSCAAWARE"> F  </i>
   <i type="logical" name="LSCALU"> F  </i>
   <i type="logical" name="LASYNC"> F  </i>
   <i type="logical" name="LORBITALREAL"> F  </i>
  </separator>
  <separator name="miscellaneous" >
   <i type="int" name="IDIOT">     3</i>
   <i type="int" name="ISPECIAL">     0</i>
   <i type="logical" name="LMUSIC"> F  </i>
   <v name="POMASS">    118.71000000     78.96000000</v>
   <v name="DARWINR">      0.00000000      0.00000000</v>
   <v name="DARWINV">      1.00000000      1.00000000</v>
   <i type="logical" name="LCORR"> T  </i>
  </separator>
  <i type="logical" name="GGA_COMPAT"> T  </i>
  <i type="logical" name="LBERRY"> F  </i>
  <i type="int" name="ICORELEVEL">     0</i>
  <i type="logical" name="LDAU"> F  </i>
  <i type="int" name="I_CONSTRAINED_M">     0</i>
  <separator name="electronic exchange-correlation" >
   <i type="string" name="GGA">--</i>
   <i type="int" name="VOSKOWN">     0</i>
   <i type="logical" name="LHFCALC"> F  </i>
   <i type="string" name="PRECFOCK"></i>
   <i type="logical" name="LSYMGRAD"> F  </i>
   <i type="logical" name="LHFONE"> F  </i>
   <i type="logical" name="LRHFCALC"> F  </i>
   <i type="logical" name="LTHOMAS"> F  </i>
   <i type="logical" name="LMODELHF"> F  </i>
   <i name="ENCUT4O">     -1.00000000</i>
   <i type="int" name="EXXOEP">     0</i>
   <i type="int" name="FOURORBIT">     0</i>
   <i name="AEXX">      0.00000000</i>
   <i name="HFALPHA">      0.00000000</i>
   <i name="MCALPHA">      0.00000000</i>
   <i name="ALDAX">      1.00000000</i>
   <i name="AGGAX">      1.00000000</i>
   <i name="ALDAC">      1.00000000</i>
   <i name="AGGAC">      1.00000000</i>
   <i type="int" name="NKREDX">     1</i>
   <i type="int" name="NKREDY">     1</i>
   <i type="int" name="NKREDZ">     1</i>
   <i type="logical" name="SHIFTRED"> F  </i>
   <i type="logical" name="ODDONLY"> F  </i>
   <i type="logical" name="EVENONLY"> F  </i>
   <i type="int" name="LMAXFOCK">     0</i>
   <i type="int" name="NMAXFOCKAE">     0</i>
   <i type="logical" name="LFOCKAEDFT"> F  </i>
   <i name="HFSCREEN">      0.00000000</i>
   <i name="HFSCREENC">      0.00000000</i>
   <i type="int" name="NBANDSGWLOW">     0</i>
  </separator>
  <separator name="vdW DFT" >
   <i type="logical" name="LUSE_VDW"> F  </i>
   <i name="Zab_VDW">     -0.84910000</i>
   <i name="PARAM1">      0.12340000</i>
   <i name="PARAM2">      1.00000000</i>
   <i name="PARAM3">      0.00000000</i>
  </separator>
  <separator name="model GW" >
   <i type="int" name="MODEL_GW">     0</i>
   <i name="MODEL_EPS0">     16.07685500</i>
   <i name="MODEL_ALPHA">      1.00000000</i>
  </separator>
  <separator name="linear response parameters" >
   <i type="logical" name="LEPSILON"> T  </i>
   <i type="logical" name="LRPA"> F  </i>
   <i type="logical" name="LNABLA"> F  </i>
   <i type="logical" name="LVEL"> F  </i>
   <i type="int" name="KINTER">     0</i>
   <i name="CSHIFT">      0.10000000</i>
   <i name="OMEGAMAX">     -1.00000000</i>
   <i name="DEG_THRESHOLD">      0.00200000</i>
   <i name="RTIME">     -0.10000000</i>
   <i name="WPLASMAI">      0.00000000</i>
   <v name="DFIELD">      0.00000000      0.00000000      0.00000000</v>
   <v name="WPLASMA">      0.00000000      0.00000000      0.00000000      0.00000000      0.00000000      0.00000000      0.00000000      0.00000000      0.00000000</v>
  </separator>
  <separator name="orbital magnetization" >
   <i type="logical" name="NUCIND"> F  </i>
   <v name="MAGPOS">      0.00000000      0.00000000      0.00000000</v>
   <i type="logical" name="LNICSALL"> T  </i>
   <i type="logical" name="ORBITALMAG"> F  </i>
   <i type="logical" name="LMAGBLOCH"> F  </i>
   <i type="logical" name="LCHIMAG"> F  </i>
   <i type="logical" name="LGAUGE"> T  </i>
   <i type="int" name="MAGATOM">     0</i>
   <v name="MAGDIPOL">      0.00000000      0.00000000      0.00000000</v>
   <v name="AVECCONST">      0.00000000      0.00000000      0.00000000</v>
  </separator>
  <separator name="response functions" >
   <i type="logical" name="LADDER"> T  </i>
   <i type="logical" name="LRPAFORCE"> F  </i>
   <i type="logical" name="LFXC"> F  </i>
   <i type="logical" name="LHARTREE"> T  </i>
   <i type="int" name="IBSE">     0</i>
   <v type="int" name="KPOINT">    -1     0     0     0</v>
   <i type="logical" name="LTCTE"> F  </i>
   <i type="logical" name="LTETE"> F  </i>
   <i type="logical" name="LTRIPLET"> F  </i>
   <i type="logical" name="LFXCEPS"> F  </i>
   <i type="logical" name="LFXHEG"> F  </i>
   <i type="int" name="NATURALO">     2</i>
   <i type="logical" name="L2ORDER"> F  </i>
   <i type="logical" name="LMP2LT"> F  </i>
   <i type="logical" name="LUSEW"> F  </i>
   <i name="ENCUTGW">     -2.00000000</i>
   <i name="ENCUTGWSOFT">     -2.00000000</i>
   <i name="ENCUTLF">     -1.00000000</i>
   <i type="int" name="LMAXMP2">    -1</i>
   <i name="SCISSOR">      0.00000000</i>
   <i type="int" name="NOMEGA">     0</i>
   <i type="int" name="NOMEGAR">     0</i>
   <i type="int" name="NBANDSGW">    -1</i>
   <i type="int" name="NBANDSO">    -1</i>
   <i type="int" name="NBANDSV">    -1</i>
   <i type="int" name="NELM">     1</i>
   <i type="int" name="NELMHF">     1</i>
   <i type="int" name="DIM">     3</i>
   <i type="int" name="ANTIRES">     0</i>
   <i name="OMEGAMAX">    -30.00000000</i>
   <i name="OMEGAMIN">    -30.00000000</i>
   <i name="OMEGATL">   -200.00000000</i>
   <i type="int" name="OMEGAGRID">   140</i>
   <i name="CSHIFT">     -0.10000000</i>
   <i type="logical" name="SELFENERGY"> F  </i>
   <i type="logical" name="LSPECTRAL"> F  </i>
   <i type="logical" name="LSPECTRALGW"> F  </i>
   <i type="logical" name="LSINGLES"> F  </i>
   <i type="logical" name="LFERMIGW"> F  </i>
   <i type="logical" name="ODDONLYGW"> F  </i>
   <i type="logical" name="EVENONLYGW"> F  </i>
   <i type="int" name="NKREDLFX">     1</i>
   <i type="int" name="NKREDLFY">     1</i>
   <i type="int" name="NKREDLFZ">     1</i>
   <i type="int" name="MAXMEM">  2800</i>
   <i type="int" name="TELESCOPE">     0</i>
   <i type="int" name="TAUPAR">     1</i>
   <i type="int" name="OMEGAPAR">    -1</i>
   <i name="LAMBDA">      1.00000000</i>
  </separator>
  <separator name="External order field" >
   <i name="OFIELD_KAPPA">      0.00000000</i>
   <v name="OFIELD_K">      0.00000000      0.00000000      0.00000000</v>
   <i name="OFIELD_Q6_NEAR">      0.00000000</i>
   <i name="OFIELD_Q6_FAR">      0.00000000</i>
   <i name="OFIELD_A">      0.00000000</i>
  </separator>
 </parameters>
 <atominfo>
  <atoms>       4 </atoms>
  <types>       2 </types>
  <array name="atoms" >
   <dimension dim="1">ion</dimension>
   <field type="string">element</field>
   <field type="int">atomtype</field>
   <set>
    <rc><c>Sn</c><c>   1</c></rc>
    <rc><c>Sn</c><c>   1</c></rc>
    <rc><c>Se</c><c>   2</c></rc>
    <rc><c>Se</c><c>   2</c></rc>
   </set>
  </array>
  <array name="atomtypes" >
   <dimension dim="1">type</dimension>
   <field type="int">atomspertype</field>
   <field type="string">element</field>
   <field>mass</field>
   <field>valence</field>
   <field type="string">pseudopotential</field>
   <set>
    <rc><c>   2</c><c>Sn</c><c>    118.71000000</c><c>     14.00000000</c><c>  PAW_PBE Sn_d 06Sep2000                </c></rc>
    <rc><c>   2</c><c>Se</c><c>     78.96000000</c><c>      6.00000000</c><c>  PAW_PBE Se 06Sep2000                  </c></rc>
   </set>
  </array>
 </atominfo>
 <structure name="initialpos" >
  <crystal>
   <varray name="basis" >
    <v>       2.13552400      -5.90816938      -0.00000000 </v>
    <v>       2.13552401       5.90816938       0.00000000 </v>
    <v>       0.00000000       0.00000000       4.24739298 </v>
   </varray>
   <i name="volume">    107.17903332 </i>
   <varray name="rec_basis" >
    <v>       0.23413457      -0.08462858       0.00000000 </v>
    <v>       0.23413457       0.08462858      -0.00000000 </v>
    <v>      -0.00000000      -0.00000000       0.23543854 </v>
   </varray>
  </crystal>
  <varray name="positions" >
   <v>       0.37512364       0.62487636       0.25000000 </v>
   <v>       0.62487636       0.37512364       0.75000000 </v>
   <v>       0.14341737       0.85658263       0.25000000 </v>
   <v>       0.85658263       0.14341737       0.75000000 </v>
  </varray>
 </structure>
 <calculation>
  <scstep>
   <time name="dav">    3.31    3.32</time>
   <time name="total">    3.39    3.40</time>
   <energy>
[...]
       <r>    6.7686    0.0000 </r>
       <r>    6.7686    0.0000 </r>
       <r>    7.2342    0.0000 </r>
       <r>    7.2342    0.0000 </r>
      </set>
      <set comment="kpoint 102">
       <r>  -15.9820    1.0000 </r>
       <r>  -15.9820    1.0000 </r>
       <r>  -15.9636    1.0000 </r>
       <r>  -15.9636    1.0000 </r>
       <r>  -15.9441    1.0000 </r>
       <r>  -15.9441    1.0000 </r>
       <r>  -15.9247    1.0000 </r>
       <r>  -15.9247    1.0000 </r>
       <r>  -15.9091    1.0000 </r>
       <r>  -15.9091    1.0000 </r>
       <r>   -7.0883    1.0000 </r>
       <r>   -7.0883    1.0000 </r>
       <r>   -1.8121    1.0000 </r>
       <r>   -1.8121    1.0000 </r>
       <r>    1.4096    1.0000 </r>
       <r>    1.4096    1.0000 </r>
       <r>    3.4505    1.0000 </r>
       <r>    3.4505    1.0000 </r>
       <r>    4.1972    1.0000 </r>
       <r>    4.1972    1.0000 </r>
       <r>    6.8576    0.0000 </r>
       <r>    6.8576    0.0000 </r>
       <r>    9.3079    0.0000 </r>
       <r>    9.3079    0.0000 </r>
      </set>
      <set comment="kpoint 103">
       <r>  -15.9761    1.0000 </r>
       <r>  -15.9761    1.0000 </r>
       <r>  -15.9679    1.0000 </r>
       <r>  -15.9679    1.0000 </r>
       <r>  -15.9453    1.0000 </r>
       <r>  -15.9453    1.0000 </r>
       <r>  -15.9231    1.0000 </r>
       <r>  -15.9231    1.0000 </r>
       <r>  -15.9104    1.0000 </r>
       <r>  -15.9104    1.0000 </r>
       <r>   -7.1926    1.0000 </r>
       <r>   -7.1926    1.0000 </r>
       <r>   -2.1276    1.0000 </r>
       <r>   -2.1276    1.0000 </r>
       <r>    2.5478    1.0000 </r>
       <r>    2.5478    1.0000 </r>
       <r>    3.7960    1.0000 </r>
       <r>    3.7960    1.0000 </r>
       <r>    4.8661    1.0000 </r>
       <r>    4.8661    1.0000 </r>
       <r>    6.2669    0.0000 </r>
       <r>    6.2669    0.0000 </r>
       <r>    8.3118    0.0000 </r>
       <r>    8.3118    0.0000 </r>
      </set>
      <set comment="kpoint 104">
       <r>  -15.9735    1.0000 </r>
       <r>  -15.9735    1.0000 </r>
       <r>  -15.9700    1.0000 </r>
       <r>  -15.9700    1.0000 </r>
       <r>  -15.9451    1.0000 </r>
       <r>  -15.9451    1.0000 </r>
       <r>  -15.9222    1.0000 </r>
       <r>  -15.9222    1.0000 </r>
       <r>  -15.9116    1.0000 </r>
       <r>  -15.9116    1.0000 </r>
       <r>   -7.2392    1.0000 </r>
       <r>   -7.2392    1.0000 </r>
       <r>   -2.1898    1.0000 </r>
       <r>   -2.1898    1.0000 </r>
       <r>    3.4423    1.0000 </r>
       <r>    3.4423    1.0000 </r>
       <r>    3.5903    1.0000 </r>
       <r>    3.5903    1.0000 </r>
       <r>    4.6272    1.0000 </r>
       <r>    4.6272    1.0000 </r>
       <r>    6.9616    0.0000 </r>
       <r>    6.9616    0.0000 </r>
       <r>    7.4325    0.0000 </r>
       <r>    7.4325    0.0000 </r>
      </set>
      <set comment="kpoint 105">
       <r>  -15.9732    1.0000 </r>
       <r>  -15.9732    1.0000 </r>
       <r>  -15.9699    1.0000 </r>
       <r>  -15.9699    1.0000 </r>
       <r>  -15.9461    1.0000 </r>
       <r>  -15.9461    1.0000 </r>
       <r>  -15.9225    1.0000 </r>
       <r>  -15.9225    1.0000 </r>
       <r>  -15.9106    1.0000 </r>
       <r>  -15.9106    1.0000 </r>
       <r>   -7.2319    1.0000 </r>
       <r>   -7.2319    1.0000 </r>
       <r>   -2.2585    1.0000 </r>
       <r>   -2.2585    1.0000 </r>
       <r>    3.5703    1.0000 </r>
       <r>    3.5703    1.0000 </r>
       <r>    3.8477    1.0000 </r>
       <r>    3.8477    1.0000 </r>
       <r>    4.4589    1.0000 </r>
       <r>    4.4589    1.0000 </r>
       <r>    6.9318    0.0000 </r>
       <r>    6.9318    0.0000 </r>
       <r>    7.5187    0.0000 </r>
       <r>    7.5187    0.0000 </r>
      </set>
     </set>
    </set>
   </array>
  </eigenvalues>
  <separator name="orbital magnetization" >
   <v name="MAGDIPOLOUT">      0.00000000      0.00000000      0.00000000</v>
  </separator>
  <dos>
   <i name="efermi">      5.42172401 </i>
   <total>
    <array>
     <dimension dim="1">gridpoints</dimension>
     <dimension dim="2">spin</dimension>
     <field>energy</field>
     <field>total</field>
     <field>integrated</field>
     <set>
      <set comment="spin 1">
       <r>   -17.9904     0.0000     0.0000 </r>
       <r>   -17.8891     0.0000     0.0000 </r>
       <r>   -17.7878     0.0000     0.0000 </r>
       <r>   -17.6865     0.0000     0.0000 </r>
       <r>   -17.5852     0.0000     0.0000 </r>
       <r>   -17.4839     0.0000     0.0000 </r>
       <r>   -17.3826     0.0000     0.0000 </r>
       <r>   -17.2813     0.0000     0.0000 </r>
       <r>   -17.1800     0.0000     0.0000 </r>
       <r>   -17.0787     0.0000     0.0000 </r>
       <r>   -16.9774     0.0000     0.0000 </r>
       <r>   -16.8761     0.0000     0.0000 </r>
       <r>   -16.7749     0.0000     0.0000 </r>
       <r>   -16.6736     0.0000     0.0000 </r>
       <r>   -16.5723     0.0000     0.0000 </r>
       <r>   -16.4710     0.0000     0.0000 </r>
       <r>   -16.3697     0.0000     0.0000 </r>
       <r>   -16.2684     0.0000     0.0000 </r>
       <r>   -16.1671     0.0000     0.0000 </r>
       <r>   -16.0658     0.0000     0.0000 </r>
       <r>   -15.9645   249.7927     6.9778 </r>
       <r>   -15.8632     0.0000    20.0000 </r>
       <r>   -15.7619     0.0000    20.0000 </r>
       <r>   -15.6606     0.0000    20.0000 </r>
       <r>   -15.5593     0.0000    20.0000 </r>
       <r>   -15.4580     0.0000    20.0000 </r>
       <r>   -15.3567     0.0000    20.0000 </r>
       <r>   -15.2554     0.0000    20.0000 </r>
       <r>   -15.1541     0.0000    20.0000 </r>
       <r>   -15.0528     0.0000    20.0000 </r>
       <r>   -14.9515     0.0000    20.0000 </r>
       <r>   -14.8502     0.0000    20.0000 </r>
       <r>   -14.7489     0.0000    20.0000 </r>
       <r>   -14.6476     0.0000    20.0000 </r>
       <r>   -14.5463     0.0000    20.0000 </r>
       <r>   -14.4450     0.0000    20.0000 </r>
       <r>   -14.3437     0.0000    20.0000 </r>
       <r>   -14.2424     0.0000    20.0000 </r>
       <r>   -14.1411     0.0000    20.0000 </r>
       <r>   -14.0398     0.0000    20.0000 </r>
       <r>   -13.9386     0.0000    20.0000 </r>
       <r>   -13.8373     0.0000    20.0000 </r>
       <r>   -13.7360     0.0000    20.0000 </r>
       <r>   -13.6347     0.0000    20.0000 </r>
       <r>   -13.5334     0.0000    20.0000 </r>
       <r>   -13.4321     0.0000    20.0000 </r>
       <r>   -13.3308     0.0000    20.0000 </r>
       <r>   -13.2295     0.0000    20.0000 </r>
       <r>   -13.1282     0.0000    20.0000 </r>
       <r>   -13.0269     0.0000    20.0000 </r>
       <r>   -12.9256     0.0000    20.0000 </r>
       <r>   -12.8243     0.0000    20.0000 </r>
       <r>   -12.7230     0.0000    20.0000 </r>
       <r>   -12.6217     0.0000    20.0000 </r>
       <r>   -12.5204     0.0000    20.0000 </r>
       <r>   -12.4191     0.0000    20.0000 </r>
       <r>   -12.3178     0.0000    20.0000 </r>
       <r>   -12.2165     0.0000    20.0000 </r>
       <r>   -12.1152     0.0000    20.0000 </r>
       <r>   -12.0139     0.0000    20.0000 </r>
       <r>   -11.9126     0.0000    20.0000 </r>
       <r>   -11.8113     0.0000    20.0000 </r>
       <r>   -11.7100     0.0000    20.0000 </r>
       <r>   -11.6087     0.0000    20.0000 </r>
       <r>   -11.5074     0.0000    20.0000 </r>
       <r>   -11.4061     0.0000    20.0000 </r>
       <r>   -11.3048     0.0000    20.0000 </r>
       <r>   -11.2035     0.0000    20.0000 </r>
       <r>   -11.1023     0.0000    20.0000 </r>
       <r>   -11.0010     0.0000    20.0000 </r>
       <r>   -10.8997     0.0000    20.0000 </r>
       <r>   -10.7984     0.0000    20.0000 </r>
       <r>   -10.6971     0.0000    20.0000 </r>
       <r>   -10.5958     0.0000    20.0000 </r>
       <r>   -10.4945     0.0000    20.0000 </r>
       <r>   -10.3932     0.0000    20.0000 </r>
       <r>   -10.2919     0.0000    20.0000 </r>
       <r>   -10.1906     0.0000    20.0000 </r>
       <r>   -10.0893     0.0000    20.0000 </r>
       <r>    -9.9880     0.0000    20.0000 </r>
       <r>    -9.8867     0.0000    20.0000 </r>
       <r>    -9.7854     0.0000    20.0000 </r>
       <r>    -9.6841     0.0000    20.0000 </r>
       <r>    -9.5828     0.0000    20.0000 </r>
       <r>    -9.4815     0.0000    20.0000 </r>
       <r>    -9.3802     0.0000    20.0000 </r>
       <r>    -9.2789     0.0000    20.0000 </r>
       <r>    -9.1776     0.0000    20.0000 </r>
       <r>    -9.0763     0.0000    20.0000 </r>
       <r>    -8.9750     0.0000    20.0000 </r>
       <r>    -8.8737     0.0000    20.0000 </r>
       <r>    -8.7724     0.0000    20.0000 </r>
       <r>    -8.6711     0.0000    20.0000 </r>
       <r>    -8.5698     0.0000    20.0000 </r>
       <r>    -8.4685     0.0000    20.0000 </r>
       <r>    -8.3672     0.0000    20.0000 </r>
       <r>    -8.2660     0.0000    20.0000 </r>
       <r>    -8.1647     0.5485    20.0228 </r>
       <r>    -8.0634     0.8545    20.0944 </r>
       <r>    -7.9621     1.4239    20.2073 </r>
       <r>    -7.8608     1.4662    20.3571 </r>
       <r>    -7.7595     1.6122    20.5134 </r>
       <r>    -7.6582     1.6974    20.6801 </r>
       <r>    -7.5569     1.8984    20.8617 </r>
       <r>    -7.4556     2.2377    21.0691 </r>
       <r>    -7.3543     2.7588    21.3262 </r>
       <r>    -7.2530     2.3117    21.5706 </r>
       <r>    -7.1517     3.1913    21.8285 </r>
       <r>    -7.0504     7.5727    22.4739 </r>
       <r>    -6.9491     9.9723    23.3453 </r>
       <r>    -6.8478     3.3714    23.8805 </r>
       <r>    -6.7465     0.0000    24.0000 </r>
       <r>    -6.6452     0.0000    24.0000 </r>
       <r>    -6.5439     0.0000    24.0000 </r>
       <r>    -6.4426     0.0000    24.0000 </r>
       <r>    -6.3413     0.0000    24.0000 </r>
       <r>    -6.2400     0.0000    24.0000 </r>
       <r>    -6.1387     0.0000    24.0000 </r>
       <r>    -6.0374     0.0000    24.0000 </r>
       <r>    -5.9361     0.0000    24.0000 </r>
       <r>    -5.8348     0.0000    24.0000 </r>
       <r>    -5.7335     0.0000    24.0000 </r>
       <r>    -5.6322     0.0000    24.0000 </r>
       <r>    -5.5309     0.0000    24.0000 </r>
       <r>    -5.4297     0.0000    24.0000 </r>
       <r>    -5.3284     0.0000    24.0000 </r>
       <r>    -5.2271     0.0000    24.0000 </r>
       <r>    -5.1258     0.0000    24.0000 </r>
       <r>    -5.0245     0.0000    24.0000 </r>
       <r>    -4.9232     0.0000    24.0000 </r>
       <r>    -4.8219     0.0000    24.0000 </r>
       <r>    -4.7206     0.0000    24.0000 </r>
       <r>    -4.6193     0.0000    24.0000 </r>
       <r>    -4.5180     0.0000    24.0000 </r>
       <r>    -4.4167     0.0000    24.0000 </r>
       <r>    -4.3154     0.0000    24.0000 </r>
       <r>    -4.2141     0.0000    24.0000 </r>
       <r>    -4.1128     0.0000    24.0000 </r>
       <r>    -4.0115     0.0000    24.0000 </r>
       <r>    -3.9102     0.0000    24.0000 </r>
       <r>    -3.8089     0.0000    24.0000 </r>
       <r>    -3.7076     0.0000    24.0000 </r>
       <r>    -3.6063     0.0000    24.0000 </r>
       <r>    -3.5050     0.0000    24.0000 </r>
       <r>    -3.4037     0.0000    24.0000 </r>
       <r>    -3.3024     0.0000    24.0000 </r>
       <r>    -3.2011     0.0000    24.0000 </r>
       <r>    -3.0998     0.0000    24.0000 </r>
       <r>    -2.9985     0.0000    24.0000 </r>
       <r>    -2.8972     0.0000    24.0000 </r>
       <r>    -2.7959     0.0000    24.0000 </r>
       <r>    -2.6947     0.0000    24.0000 </r>
       <r>    -2.5934     0.1635    24.0037 </r>
       <r>    -2.4921     0.6488    24.0450 </r>
       <r>    -2.3908     0.6989    24.1166 </r>
       <r>    -2.2895     1.0428    24.1993 </r>
       <r>    -2.1882     1.6918    24.3364 </r>
       <r>    -2.0869     2.0488    24.5328 </r>
       <r>    -1.9856     2.0218    24.7371 </r>
       <r>    -1.8843     2.0449    24.9405 </r>
       <r>    -1.7830     2.2431    25.1588 </r>
       <r>    -1.6817     2.3026    25.3903 </r>
       <r>    -1.5804     2.1198    25.6099 </r>
       <r>    -1.4791     2.7009    25.8483 </r>
       <r>    -1.3778     2.6093    26.1238 </r>
       <r>    -1.2765     2.5220    26.3811 </r>
       <r>    -1.1752     2.8482    26.6476 </r>
       <r>    -1.0739     3.1191    26.9501 </r>
       <r>    -0.9726     2.4489    27.2472 </r>
       <r>    -0.8713     1.4959    27.4500 </r>
       <r>    -0.7700     0.7831    27.5544 </r>
       <r>    -0.6687     0.6583    27.6271 </r>
       <r>    -0.5674     0.5712    27.6890 </r>
       <r>    -0.4661     0.5032    27.7433 </r>
       <r>    -0.3648     0.4568    27.7916 </r>
       <r>    -0.2635     0.4371    27.8368 </r>
       <r>    -0.1622     0.4215    27.8798 </r>
       <r>    -0.0609     0.3931    27.9216 </r>
       <r>     0.0404     0.2925    27.9564 </r>
       <r>     0.1416     0.1885    27.9809 </r>
       <r>     0.2429     0.0899    27.9948 </r>
       <r>     0.3442     0.0137    27.9998 </r>
       <r>     0.4455     0.1020    28.0032 </r>
       <r>     0.5468     0.5415    28.0322 </r>
       <r>     0.6481     1.1571    28.1374 </r>
       <r>     0.7494     1.0024    28.2429 </r>
       <r>     0.8507     1.0881    28.3479 </r>
       <r>     0.9520     1.2732    28.4671 </r>
       <r>     1.0533     1.5538    28.6081 </r>
       <r>     1.1546     1.6664    28.7889 </r>
       <r>     1.2559     1.5496    28.9477 </r>
       <r>     1.3572     1.5639    29.1051 </r>
       <r>     1.4585     1.6702    29.2676 </r>
       <r>     1.5598     1.8777    29.4480 </r>
       <r>     1.6611     1.9718    29.6428 </r>
       <r>     1.7624     2.2928    29.8549 </r>
       <r>     1.8637     2.7050    30.1068 </r>
       <r>     1.9650     3.1311    30.4076 </r>
       <r>     2.0663     3.0584    30.7260 </r>
       <r>     2.1676     2.9900    31.0300 </r>
       <r>     2.2689     2.8472    31.3286 </r>
       <r>     2.3702     2.7671    31.6113 </r>
       <r>     2.4715     2.7079    31.8889 </r>
       <r>     2.5728     2.6005    32.1551 </r>
       <r>     2.6741     2.7219    32.4245 </r>
       <r>     2.7754     2.9859    32.7100 </r>
       <r>     2.8767     3.6156    33.0391 </r>
       <r>     2.9779     3.3518    33.4021 </r>
       <r>     3.0792     3.0401    33.7240 </r>
       <r>     3.1805     2.9154    34.0329 </r>
       <r>     3.2818     3.0322    34.3286 </r>
       <r>     3.3831     3.5582    34.6629 </r>
       <r>     3.4844     3.8005    35.0329 </r>
       <r>     3.5857     4.1156    35.4310 </r>
       <r>     3.6870     4.2114    35.8498 </r>
       <r>     3.7883     4.5472    36.2942 </r>
       <r>     3.8896     3.3623    36.7129 </r>
       <r>     3.9909     2.1651    36.9955 </r>
       <r>     4.0922     1.7756    37.1914 </r>
       <r>     4.1935     1.8465    37.3716 </r>
       <r>     4.2948     2.5863    37.5747 </r>
       <r>     4.3961     3.1882    37.8624 </r>
       <r>     4.4974     3.1715    38.1940 </r>
       <r>     4.5987     2.7276    38.4939 </r>
       <r>     4.7000     2.2127    38.7343 </r>
       <r>     4.8013     6.6678    39.1557 </r>
       <r>     4.9026     2.9909    39.6293 </r>
       <r>     5.0039     1.1444    39.8289 </r>
       <r>     5.1052     0.7570    39.9235 </r>
       <r>     5.2065     0.3270    39.9798 </r>
       <r>     5.3078     0.0694    39.9975 </r>
       <r>     5.4091     0.0006    40.0000 </r>
       <r>     5.5104     0.0000    40.0000 </r>
       <r>     5.6117     0.0000    40.0000 </r>
       <r>     5.7130     0.0000    40.0000 </r>
       <r>     5.8142     0.0108    40.0003 </r>
       <r>     5.9155     0.0465    40.0031 </r>
       <r>     6.0168     0.1049    40.0103 </r>
       <r>     6.1181     0.1901    40.0251 </r>
       <r>     6.2194     0.4519    40.0563 </r>
       <r>     6.3207     0.7889    40.1192 </r>
       <r>     6.4220     1.1082    40.2152 </r>
       <r>     6.5233     1.3894    40.3376 </r>
       <r>     6.6246     1.7442    40.4981 </r>
       <r>     6.7259     2.0885    40.6954 </r>
       <r>     6.8272     2.4371    40.9236 </r>
       <r>     6.9285     2.5660    41.1818 </r>
       <r>     7.0298     2.4528    41.4342 </r>
       <r>     7.1311     2.2345    41.6756 </r>
       <r>     7.2324     2.1169    41.8939 </r>
       <r>     7.3337     2.1527    42.1092 </r>
       <r>     7.4350     2.3188    42.3342 </r>
       <r>     7.5363     2.5510    42.5816 </r>
       <r>     7.6376     2.4529    42.8379 </r>
       <r>     7.7389     2.3551    43.0814 </r>
       <r>     7.8402     2.4419    43.3223 </r>
       <r>     7.9415     2.6818    43.5805 </r>
       <r>     8.0428     2.8564    43.8687 </r>
       <r>     8.1441     2.7488    44.1528 </r>
       <r>     8.2454     2.8033    44.4328 </r>
       <r>     8.3467     2.6392    44.7073 </r>
       <r>     8.4480     2.7301    44.9801 </r>
       <r>     8.5493     2.5851    45.2498 </r>
       <r>     8.6505     2.4664    45.5051 </r>
       <r>     8.7518     2.3876    45.7501 </r>
       <r>     8.8531     2.2733    45.9841 </r>
       <r>     8.9544     2.3319    46.2129 </r>
       <r>     9.0557     2.8977    46.4650 </r>
       <r>     9.1570     2.0790    46.7174 </r>
       <r>     9.2583     1.8093    46.9170 </r>
       <r>     9.3596     1.6733    47.0920 </r>
       <r>     9.4609     1.3344    47.2467 </r>
       <r>     9.5622     1.1160    47.3698 </r>
       <r>     9.6635     0.9610    47.4742 </r>
       <r>     9.7648     0.8588    47.5661 </r>
       <r>     9.8661     0.7686    47.6485 </r>
       <r>     9.9674     0.7486    47.7239 </r>
       <r>    10.0687     0.8596    47.8057 </r>
       <r>    10.1700     0.8428    47.8938 </r>
       <r>    10.2713     0.5086    47.9604 </r>
       <r>    10.3726     0.1588    47.9980 </r>
       <r>    10.4739     0.0000    48.0000 </r>
       <r>    10.5752     0.0000    48.0000 </r>
       <r>    10.6765     0.0000    48.0000 </r>
       <r>    10.7778     0.0000    48.0000 </r>
       <r>    10.8791     0.0000    48.0000 </r>
       <r>    10.9804     0.0000    48.0000 </r>
       <r>    11.0817     0.0000    48.0000 </r>
       <r>    11.1830     0.0000    48.0000 </r>
       <r>    11.2843     0.0000    48.0000 </r>
       <r>    11.3855     0.0000    48.0000 </r>
       <r>    11.4868     0.0000    48.0000 </r>
       <r>    11.5881     0.0000    48.0000 </r>
       <r>    11.6894     0.0000    48.0000 </r>
       <r>    11.7907     0.0000    48.0000 </r>
       <r>    11.8920     0.0000    48.0000 </r>
       <r>    11.9933     0.0000    48.0000 </r>
       <r>    12.0946     0.0000    48.0000 </r>
       <r>    12.1959     0.0000    48.0000 </r>
       <r>    12.2972     0.0000    48.0000 </r>
       <r>    12.3985     0.0000    48.0000 </r>
      </set>
     </set>
    </array>
   </total>
  </dos>
 </calculation>
 <structure name="finalpos" >
  <crystal>
   <varray name="basis" >
    <v>       2.13552400      -5.90816938      -0.00000000 </v>
    <v>       2.13552401       5.90816938       0.00000000 </v>
    <v>       0.00000000       0.00000000       4.24739298 </v>
   </varray>
   <i name="volume">    107.17903332 </i>
   <varray name="rec_basis" >
    <v>       0.23413457      -0.08462858       0.00000000 </v>
    <v>       0.23413457       0.08462858      -0.00000000 </v>
    <v>      -0.00000000      -0.00000000       0.23543854 </v>
   </varray>
  </crystal>
  <varray name="positions" >
   <v>       0.37512364       0.62487636       0.25000000 </v>
   <v>       0.62487636       0.37512364       0.75000000 </v>
   <v>       0.14341737       0.85658263       0.25000000 </v>
   <v>       0.85658263       0.14341737       0.75000000 </v>
  </varray>
 </structure>
</modeling>
