 vasp.5.4.4.18Apr17-6-g9f103f2a35 (build Mar 20 2018 18:07:30) complex           
 executed on             LinuxGNU date 2020.07.03  13:30:06
 running on    8 total cores
 distrk:  each k-point on    8 cores,    1 groups
 distr:  one band on NCORES_PER_BAND=   2 cores,    4 groups


--------------------------------------------------------------------------------------------------------


 INCAR:
 POTCAR:    PAW_PBE Te 08Apr2002                  
 POTCAR:    PAW_PBE Pb_d 06Sep2000                
 POTCAR:    PAW_PBE Te 08Apr2002                  
   VRHFIN =Te: s2p4                                                             
   LEXCH  = PE                                                                  
   EATOM  =   223.2721 eV,   16.4100 Ry                                         
                                                                                
   TITEL  = PAW_PBE Te 08Apr2002                                                
   LULTRA =        F    use ultrasoft PP ?                                      
   IUNSCR =        1    unscreen: 0-lin 1-nonlin 2-no                           
   RPACOR =    2.200    partial core radius                                     
   POMASS =  127.600; ZVAL   =    6.000    mass and valenz                      
   RCORE  =    2.300    outmost cutoff radius                                   
   RWIGS  =    2.900; RWIGS  =    1.535    wigner-seitz radius (au A)           
   ENMAX  =  174.982; ENMIN  =  131.236 eV                                      
   ICORE  =        3    local potential                                         
   LCOR   =        T    correct aug charges                                     
   LPAW   =        T    paw PP                                                  
   EAUG   =  368.792                                                            
   DEXC   =    0.000                                                            
   RMAX   =    2.345    core radius for proj-oper                               
   RAUG   =    1.300    factor for augmentation sphere                          
   RDEP   =    2.397    radius for radial grids                                 
   RDEPT  =    2.174    core radius for aug-charge                              
                                                                                
   Atomic configuration                                                         
   13 entries                                                                   
     n  l   j            E        occ.                                          
     1  0  0.50    -31621.2075   2.0000                                         
     2  0  0.50     -4848.7941   2.0000                                         
     2  1  1.50     -4352.1960   6.0000                                         
     3  0  0.50      -964.9612   2.0000                                         
     3  1  1.50      -803.6179   6.0000                                         
     3  2  2.50      -559.8710  10.0000                                         
     4  0  0.50      -164.3522   2.0000                                         
     4  1  1.50      -114.3756   6.0000                                         
     4  2  2.50       -41.6483  10.0000                                         
     5  0  0.50       -15.1072   2.0000                                         
     5  1  0.50        -5.9526   4.0000                                         
     5  2  1.50        -5.4423   0.0000                                         
     4  3  2.50        -5.4423   0.0000                                         
   Description                                                                  
     l       E           TYP  RCUT    TYP  RCUT                                 
     0    -15.1072389     23  2.300                                             
     0    -16.4678215     23  2.300                                             
     1     -5.9526306     23  2.300                                             
     1     -2.4873968     23  2.300                                             
     2     -5.4423304     23  2.300                                             
     3     -1.3605826     23  2.300                                             
  local pseudopotential read in
  partial core-charges read in
  partial kinetic energy density read in
  atomic valenz-charges read in
  non local Contribution for L=           0  read in
    real space projection operators read in
  non local Contribution for L=           0  read in
    real space projection operators read in
  non local Contribution for L=           1  read in
    real space projection operators read in
  non local Contribution for L=           1  read in
    real space projection operators read in
  non local Contribution for L=           2  read in
    real space projection operators read in
    PAW grid and wavefunctions read in

   number of l-projection  operators is LMAX  =           5
   number of lm-projection operators is LMMAX =          13

 POTCAR:    PAW_PBE Pb_d 06Sep2000                
   VRHFIN =Pb:                                                                  
   LEXCH  = PE                                                                  
   EATOM  =  1661.6185 eV,  122.1255 Ry                                         
                                                                                
   TITEL  = PAW_PBE Pb_d 06Sep2000                                              
   LULTRA =        F    use ultrasoft PP ?                                      
   IUNSCR =        1    unscreen: 0-lin 1-nonlin 2-no                           
   RPACOR =    2.200    partial core radius                                     
   POMASS =  207.200; ZVAL   =   14.000    mass and valenz                      
   RCORE  =    2.500    outmost cutoff radius                                   
   RWIGS  =    3.260; RWIGS  =    1.725    wigner-seitz radius (au A)           
   ENMAX  =  237.835; ENMIN  =  178.376 eV                                      
   ICORE  =        3    local potential                                         
   LCOR   =        T    correct aug charges                                     
   LPAW   =        T    paw PP                                                  
   EAUG   =  391.914                                                            
   DEXC   =    0.000                                                            
   RMAX   =    2.565    core radius for proj-oper                               
   RAUG   =    1.300    factor for augmentation sphere                          
   RDEP   =    2.643    radius for radial grids                                 
   RDEPT  =    2.092    core radius for aug-charge                              
                                                                                
   Atomic configuration                                                         
   16 entries                                                                   
     n  l   j            E        occ.                                          
     1  0  0.50    -88091.8466   2.0000                                         
     2  0  0.50    -15753.4197   2.0000                                         
     2  1  1.50    -13508.1797   6.0000                                         
     3  0  0.50     -3781.7194   2.0000                                         
     3  1  1.50     -3138.2529   6.0000                                         
     3  2  2.50     -2483.2977  10.0000                                         
     4  0  0.50      -856.2895   2.0000                                         
     4  1  1.50      -645.4942   6.0000                                         
     4  2  2.50      -401.8768  10.0000                                         
     4  3  3.50      -132.9059  14.0000                                         
     5  0  0.50      -144.0950   2.0000                                         
     5  1  1.50       -85.7879   6.0000                                         
     5  2  2.50       -21.1769  10.0000                                         
     6  0  0.50       -12.0372   2.0000                                         
     6  1  1.50        -3.4971   2.0000                                         
     5  3  2.50        -2.7212   0.0000                                         
   Description                                                                  
     l       E           TYP  RCUT    TYP  RCUT                                 
     2    -21.1768523     23  2.500                                             
     2      1.3605826     23  2.500                                             
     0    -12.0371562     23  2.500                                             
     0     13.6058260     23  2.500                                             
     1     -3.4971339     23  2.500                                             
     1     13.6058260     23  2.500                                             
     3     -1.3605826      7  2.500                                             
  local pseudopotential read in
  partial core-charges read in
  partial kinetic energy density read in
  atomic valenz-charges read in
  non local Contribution for L=           2  read in
    real space projection operators read in
  non local Contribution for L=           2  read in
    real space projection operators read in
  non local Contribution for L=           0  read in
    real space projection operators read in
  non local Contribution for L=           0  read in
    real space projection operators read in
  non local Contribution for L=           1  read in
    real space projection operators read in
  non local Contribution for L=           1  read in
    real space projection operators read in
    PAW grid and wavefunctions read in

   number of l-projection  operators is LMAX  =           6
   number of lm-projection operators is LMMAX =          18

  PAW_PBE Te 08Apr2002                  :
 energy of atom  1       EATOM= -223.2721
 kinetic energy error for atom=    0.0004 (will be added to EATOM!!)
  PAW_PBE Pb_d 06Sep2000                :
 energy of atom  2       EATOM=-1661.6185
 kinetic energy error for atom=    0.0014 (will be added to EATOM!!)


 POSCAR: Te1 Pb1                                 
  positions in direct lattice
  No initial velocities read in
 exchange correlation table for  LEXCH =        8
   RHO(1)=    0.500       N(1)  =     2000
   RHO(2)=  100.500       N(2)  =     4000



--------------------------------------------------------------------------------------------------------


 ion  position               nearest neighbor table
   1  0.000  0.000  0.000-   2 3.28   2 3.28   2 3.28   2 3.28   2 3.28   2 3.28
   2  0.500  0.500  0.500-   1 3.28   1 3.28   1 3.28   1 3.28   1 3.28   1 3.28


IMPORTANT INFORMATION: All symmetrisations will be switched off!
NOSYMM: (Re-)initialisation of all symmetry stuff for point group C_1.



 KPOINTS: generate with stepsize: 0.01            
  k-points in reciprocal lattice
Space group operators:
 irot       det(A)        alpha          n_x          n_y          n_z        tau_x        tau_y        tau_z
    1     1.000000     0.000000     1.000000     0.000000     0.000000     0.000000     0.000000     0.000000


--------------------------------------------------------------------------------------------------------




 Dimension of arrays:
   k-points           NKPTS =     61   k-points in BZ     NKDIM =     61   number of bands    NBANDS=     60
   number of dos      NEDOS =    301   number of ions     NIONS =      2
   non local maximal  LDIM  =      6   non local SUM 2l+1 LMDIM =     18
   total plane-waves  NPLWV =  64000
   max r-space proj   IRMAX =      1   max aug-charges    IRDMAX= 420444
   dimension x,y,z NGX =    40 NGY =   40 NGZ =   40
   dimension x,y,z NGXF=    80 NGYF=   80 NGZF=   80
   support grid    NGXF=   160 NGYF=  160 NGZF=  160
   ions per type =               1   1
   NGX,Y,Z   is equivalent  to a cutoff of  14.32, 14.32, 14.32 a.u.
   NGXF,Y,Z  is equivalent  to a cutoff of  28.63, 28.63, 28.63 a.u.

 SYSTEM =  PbTe                                    
 POSCAR =  Te1 Pb1                                 

 Startparameter for this run:
   NWRITE =      2    write-flag & timer
   PREC   = accura    normal or accurate (medium, high low for compatibility)
   ISTART =      0    job   : 0-new  1-cont  2-samecut
   ICHARG =     11    charge: 1-file 2-atom 10-const
   ISPIN  =      1    spin polarized calculation?
   LNONCOLLINEAR =      T non collinear calculations
   LSORBIT =      T    spin-orbit coupling
   INIWAV =      1    electr: 0-lowe 1-rand  2-diag
   LASPH  =      F    aspherical Exc in radial PAW
   METAGGA=      F    non-selfconsistent MetaGGA calc.

 Electronic Relaxation 1
   ENCUT  =  600.0 eV  44.10 Ry    6.64 a.u.   9.28  9.28  9.28*2*pi/ulx,y,z
   ENINI  =  600.0     initial cutoff
   ENAUG  =  391.9 eV  augmentation charge cutoff
   NELM   =     60;   NELMIN=  2; NELMDL=  0     # of ELM steps 
   EDIFF  = 0.1E-06   stopping-criterion for ELM
   LREAL  =      F    real-space projection
   NLSPLINE    = F    spline interpolate recip. space projectors
   LCOMPAT=      F    compatible to vasp.4.4
   GGA_COMPAT  = F    GGA compatible to vasp.4.4-vasp.4.6
   LMAXPAW     = -100 max onsite density
   LMAXMIX     =    4 max onsite mixed and CHGCAR
   VOSKOWN=      0    Vosko Wilk Nusair interpolation
   ROPT   =    0.00000   0.00000
 Ionic relaxation
   EDIFFG = -.1E-02   stopping-criterion for IOM
   NSW    =      0    number of steps for IOM
   NBLOCK =      1;   KBLOCK =      1    inner block; outer block 
   IBRION =     -1    ionic relax: 0-MD 1-quasi-New 2-CG
   NFREE  =      0    steps in history (QN), initial steepest desc. (CG)
   ISIF   =      2    stress and relaxation
   IWAVPR =     10    prediction:  0-non 1-charg 2-wave 3-comb
   ISYM   =     -1    0-nonsym 1-usesym 2-fastsym
   LCORR  =      T    Harris-Foulkes like correction to forces

   POTIM  = 0.5000    time-step for ionic-motion
   TEIN   =    0.0    initial temperature
   TEBEG  =    0.0;   TEEND  =   0.0 temperature during run
   SMASS  =  -3.00    Nose mass-parameter (am)
   estimated Nose-frequenzy (Omega)   =  0.10E-29 period in steps =****** mass=  -0.493E-27a.u.
   SCALEE = 1.0000    scale energy and forces
   NPACO  =    256;   APACO  = 16.0  distance and # of slots for P.C.
   PSTRESS=    0.0 pullay stress

  Mass of Ions in am
   POMASS = 127.60207.20
  Ionic Valenz
   ZVAL   =   6.00 14.00
  Atomic Wigner-Seitz radii
   RWIGS  =  -1.00 -1.00
  virtual crystal weights 
   VCA    =   1.00  1.00
   NELECT =      20.0000    total number of electrons
   NUPDOWN=      -1.0000    fix difference up-down

 DOS related values:
   EMIN   =  10.00;   EMAX   =-10.00  energy-range for DOS
   EFERMI =   0.00
   ISMEAR =     0;   SIGMA  =   0.01  broadening in eV -4-tet -1-fermi 0-gaus

 Electronic relaxation 2 (details)
   IALGO  =     58    algorithm
   LDIAG  =      T    sub-space diagonalisation (order eigenvalues)
   LSUBROT=      F    optimize rotation matrix (better conditioning)
   TURBO    =      0    0=normal 1=particle mesh
   IRESTART =      0    0=no restart 2=restart with 2 vectors
   NREBOOT  =      0    no. of reboots
   NMIN     =      0    reboot dimension
   EREF     =   0.00    reference energy to select bands
   IMIX   =      4    mixing-type and parameters
     AMIX     =   0.40;   BMIX     =  1.00
     AMIX_MAG =   1.60;   BMIX_MAG =  1.00
     AMIN     =   0.10
     WC   =   100.;   INIMIX=   1;  MIXPRE=   1;  MAXMIX= -45

 Intra band minimization:
   WEIMIN = 0.0000     energy-eigenvalue tresh-hold
   EBREAK =  0.42E-09  absolut break condition
   DEPER  =   0.30     relativ break condition  

   TIME   =   0.40     timestep for ELM

  volume/ion in A,a.u.               =      35.43       239.07
  Fermi-wavevector in a.u.,A,eV,Ry     =   1.073900  2.029376 15.691065  1.153261
  Thomas-Fermi vector in A             =   2.209713

 Write flags
   LWAVE        =      F    write WAVECAR
   LDOWNSAMPLE  =      F    k-point downsampling of WAVECAR
   LCHARG       =      F    write CHGCAR
   LVTOT        =      F    write LOCPOT, total local potential
   LVHAR        =      F    write LOCPOT, Hartree potential only
   LELF         =      F    write electronic localiz. function (ELF)
   LORBIT       =      0    0 simple, 1 ext, 2 COOP (PROOUT), +10 PAW based schemes


 Dipole corrections
   LMONO  =      F    monopole corrections only (constant potential shift)
   LDIPOL =      F    correct potential (dipole corrections)
   IDIPOL =      0    1-x, 2-y, 3-z, 4-all directions 
   EPSILON=  1.0000000 bulk dielectric constant

 Exchange correlation treatment:
   GGA     =    --    GGA type
   LEXCH   =     8    internal setting for exchange type
   VOSKOWN=      0    Vosko Wilk Nusair interpolation
   LHFCALC =     F    Hartree Fock is set to
   LHFONE  =     F    Hartree Fock one center treatment
   AEXX    =    0.0000 exact exchange contribution

 Linear response parameters
   LEPSILON=     F    determine dielectric tensor
   LRPA    =     F    only Hartree local field effects (RPA)
   LNABLA  =     F    use nabla operator in PAW spheres
   LVEL    =     F    velocity operator in full k-point grid
   LINTERFAST=   F  fast interpolation
   KINTER  =     0    interpolate to denser k-point grid
   CSHIFT  =0.1000    complex shift for real part using Kramers Kronig
   OMEGAMAX=  -1.0    maximum frequency
   DEG_THRESHOLD= 0.2000000E-02 threshold for treating states as degnerate
   RTIME   =   -0.100 relaxation time in fs
  (WPLASMAI=    0.000 imaginary part of plasma frequency in eV, 0.658/RTIME)
   DFIELD  = 0.0000000 0.0000000 0.0000000 field for delta impulse in time

 Orbital magnetization related:
   ORBITALMAG=     F  switch on orbital magnetization
   LCHIMAG   =     F  perturbation theory with respect to B field
   DQ        =  0.001000  dq finite difference perturbation B field
   LLRAUG    =     F  two centre corrections for induced B field



--------------------------------------------------------------------------------------------------------


 Static calculation
 charge density and potential remain constant during run
 non collinear spin polarized calculation
 Conjugate gradient for all bands (Freysoldt, et al. PRB 79, 241103 (2009))
 preconditioned conjugated gradient   charged. constant during bandupdate  
 perform sub-space diagonalisation
    before iterative eigenvector-optimisation
 no mixing
 using additional bands           50
 reciprocal scheme for non local part
 use partial core corrections
 calculate Harris-corrections to forces   (improved forces if not selfconsistent)
 use gradient corrections 
 WARNING: stress and forces are not correct
  (second derivative of E(xc) not defined)
 use of overlap-Matrix (Vanderbilt PP)
 Gauss-broadening in eV      SIGMA  =   0.01


--------------------------------------------------------------------------------------------------------


  energy-cutoff  :      600.00
  volume of cell :       70.85
      direct lattice vectors                 reciprocal lattice vectors
     0.000000000  3.284311990  3.284311990    -0.152238886  0.152238886  0.152238886
     3.284311990  0.000000000  3.284311990     0.152238886 -0.152238886  0.152238886
     3.284311990  3.284311990  0.000000000     0.152238886  0.152238886 -0.152238886

  length of vectors
     4.644718559  4.644718559  4.644718559     0.263685486  0.263685486  0.263685486



 k-points in units of 2pi/SCALE and weight: generate with stepsize: 0.01            
   0.07611944  0.07611944  0.07611944       0.016
   0.07010426  0.07611944  0.07611944       0.016
   0.07311185  0.07611944  0.07611944       0.016
   0.07912704  0.07611944  0.07611944       0.016
   0.08213463  0.07611944  0.07611944       0.016
   0.07611944  0.07010426  0.07611944       0.016
   0.07611944  0.07311185  0.07611944       0.016
   0.07611944  0.07912704  0.07611944       0.016
   0.07611944  0.08213463  0.07611944       0.016
   0.07611944  0.07611944  0.07010426       0.016
   0.07611944  0.07611944  0.07311185       0.016
   0.07611944  0.07611944  0.07912704       0.016
   0.07611944  0.07611944  0.08213463       0.016
   0.07010426  0.07010426  0.07611944       0.016
   0.07311185  0.07010426  0.07611944       0.016
   0.07912704  0.07010426  0.07611944       0.016
   0.08213463  0.07010426  0.07611944       0.016
   0.07010426  0.07311185  0.07611944       0.016
   0.07311185  0.07311185  0.07611944       0.016
   0.07912704  0.07311185  0.07611944       0.016
   0.08213463  0.07311185  0.07611944       0.016
   0.07010426  0.07912704  0.07611944       0.016
   0.07311185  0.07912704  0.07611944       0.016
   0.07912704  0.07912704  0.07611944       0.016
   0.08213463  0.07912704  0.07611944       0.016
   0.07010426  0.08213463  0.07611944       0.016
   0.07311185  0.08213463  0.07611944       0.016
   0.07912704  0.08213463  0.07611944       0.016
   0.08213463  0.08213463  0.07611944       0.016
   0.07010426  0.07611944  0.07010426       0.016
   0.07311185  0.07611944  0.07010426       0.016
   0.07912704  0.07611944  0.07010426       0.016
   0.08213463  0.07611944  0.07010426       0.016
   0.07010426  0.07611944  0.07311185       0.016
   0.07311185  0.07611944  0.07311185       0.016
   0.07912704  0.07611944  0.07311185       0.016
   0.08213463  0.07611944  0.07311185       0.016
   0.07010426  0.07611944  0.07912704       0.016
   0.07311185  0.07611944  0.07912704       0.016
   0.07912704  0.07611944  0.07912704       0.016
   0.08213463  0.07611944  0.07912704       0.016
   0.07010426  0.07611944  0.08213463       0.016
   0.07311185  0.07611944  0.08213463       0.016
   0.07912704  0.07611944  0.08213463       0.016
   0.08213463  0.07611944  0.08213463       0.016
   0.07611944  0.07010426  0.07010426       0.016
   0.07611944  0.07311185  0.07010426       0.016
   0.07611944  0.07912704  0.07010426       0.016
   0.07611944  0.08213463  0.07010426       0.016
   0.07611944  0.07010426  0.07311185       0.016
   0.07611944  0.07311185  0.07311185       0.016
   0.07611944  0.07912704  0.07311185       0.016
   0.07611944  0.08213463  0.07311185       0.016
   0.07611944  0.07010426  0.07912704       0.016
   0.07611944  0.07311185  0.07912704       0.016
   0.07611944  0.07912704  0.07912704       0.016
   0.07611944  0.08213463  0.07912704       0.016
   0.07611944  0.07010426  0.08213463       0.016
   0.07611944  0.07311185  0.08213463       0.016
   0.07611944  0.07912704  0.08213463       0.016
   0.07611944  0.08213463  0.08213463       0.016

 k-points in reciprocal lattice and weights: generate with stepsize: 0.01            
   0.50000000  0.50000000  0.50000000       0.016
   0.50000000  0.48024426  0.48024426       0.016
   0.50000000  0.49012213  0.49012213       0.016
   0.50000000  0.50987787  0.50987787       0.016
   0.50000000  0.51975574  0.51975574       0.016
   0.48024426  0.50000000  0.48024426       0.016
   0.49012213  0.50000000  0.49012213       0.016
   0.50987787  0.50000000  0.50987787       0.016
   0.51975574  0.50000000  0.51975574       0.016
   0.48024426  0.48024426  0.50000000       0.016
   0.49012213  0.49012213  0.50000000       0.016
   0.50987787  0.50987787  0.50000000       0.016
   0.51975574  0.51975574  0.50000000       0.016
   0.48024426  0.48024426  0.46048851       0.016
   0.48024426  0.49012213  0.47036638       0.016
   0.48024426  0.50987787  0.49012213       0.016
   0.48024426  0.51975574  0.50000000       0.016
   0.49012213  0.48024426  0.47036638       0.016
   0.49012213  0.49012213  0.48024426       0.016
   0.49012213  0.50987787  0.50000000       0.016
   0.49012213  0.51975574  0.50987787       0.016
   0.50987787  0.48024426  0.49012213       0.016
   0.50987787  0.49012213  0.50000000       0.016
   0.50987787  0.50987787  0.51975574       0.016
   0.50987787  0.51975574  0.52963362       0.016
   0.51975574  0.48024426  0.50000000       0.016
   0.51975574  0.49012213  0.50987787       0.016
   0.51975574  0.50987787  0.52963362       0.016
   0.51975574  0.51975574  0.53951149       0.016
   0.48024426  0.46048851  0.48024426       0.016
   0.48024426  0.47036638  0.49012213       0.016
   0.48024426  0.49012213  0.50987787       0.016
   0.48024426  0.50000000  0.51975574       0.016
   0.49012213  0.47036638  0.48024426       0.016
   0.49012213  0.48024426  0.49012213       0.016
   0.49012213  0.50000000  0.50987787       0.016
   0.49012213  0.50987787  0.51975574       0.016
   0.50987787  0.49012213  0.48024426       0.016
   0.50987787  0.50000000  0.49012213       0.016
   0.50987787  0.51975574  0.50987787       0.016
   0.50987787  0.52963362  0.51975574       0.016
   0.51975574  0.50000000  0.48024426       0.016
   0.51975574  0.50987787  0.49012213       0.016
   0.51975574  0.52963362  0.50987787       0.016
   0.51975574  0.53951149  0.51975574       0.016
   0.46048851  0.48024426  0.48024426       0.016
   0.47036638  0.48024426  0.49012213       0.016
   0.49012213  0.48024426  0.50987787       0.016
   0.50000000  0.48024426  0.51975574       0.016
   0.47036638  0.49012213  0.48024426       0.016
   0.48024426  0.49012213  0.49012213       0.016
   0.50000000  0.49012213  0.50987787       0.016
   0.50987787  0.49012213  0.51975574       0.016
   0.49012213  0.50987787  0.48024426       0.016
   0.50000000  0.50987787  0.49012213       0.016
   0.51975574  0.50987787  0.50987787       0.016
   0.52963362  0.50987787  0.51975574       0.016
   0.50000000  0.51975574  0.48024426       0.016
   0.50987787  0.51975574  0.49012213       0.016
   0.52963362  0.51975574  0.50987787       0.016
   0.53951149  0.51975574  0.51975574       0.016

 position of ions in fractional coordinates (direct lattice) 
   0.00000000  0.00000000  0.00000000
   0.50000000  0.50000000  0.50000000

 position of ions in cartesian coordinates  (Angst):
   0.00000000  0.00000000  0.00000000
   3.28431199  3.28431199  3.28431199

 Euler angles ALPHA=     0.0000000  BETA=     0.0000000

 transformation matrix from SAXIS to cartesian coordinates
 ---------------------------------------------------------
     1.0000000 m_x    -0.0000000 m_y     0.0000000 m_z
     0.0000000 m_x     1.0000000 m_y     0.0000000 m_z
    -0.0000000 m_x     0.0000000 m_y     1.0000000 m_z

 transformation matrix from cartesian coordinates to SAXIS
 ---------------------------------------------------------
     1.0000000 m_x     0.0000000 m_y    -0.0000000 m_z
    -0.0000000 m_x     1.0000000 m_y     0.0000000 m_z
     0.0000000 m_x     0.0000000 m_y     1.0000000 m_z




--------------------------------------------------------------------------------------------------------


 k-point  1 :   0.5000 0.5000 0.5000  plane waves:    4724
 k-point  2 :   0.5000 0.4802 0.4802  plane waves:    4734
 k-point  3 :   0.5000 0.4901 0.4901  plane waves:    4724
 k-point  4 :   0.5000 0.5099 0.5099  plane waves:    4724
 k-point  5 :   0.5000 0.5198 0.5198  plane waves:    4734
 k-point  6 :   0.4802 0.5000 0.4802  plane waves:    4734
 k-point  7 :   0.4901 0.5000 0.4901  plane waves:    4724
 k-point  8 :   0.5099 0.5000 0.5099  plane waves:    4724
 k-point  9 :   0.5198 0.5000 0.5198  plane waves:    4734
 k-point 10 :   0.4802 0.4802 0.5000  plane waves:    4734
 k-point 11 :   0.4901 0.4901 0.5000  plane waves:    4724
 k-point 12 :   0.5099 0.5099 0.5000  plane waves:    4724
 k-point 13 :   0.5198 0.5198 0.5000  plane waves:    4734
 k-point 14 :   0.4802 0.4802 0.4605  plane waves:    4742
 k-point 15 :   0.4802 0.4901 0.4704  plane waves:    4738
 k-point 16 :   0.4802 0.5099 0.4901  plane waves:    4738
 k-point 17 :   0.4802 0.5198 0.5000  plane waves:    4736
 k-point 18 :   0.4901 0.4802 0.4704  plane waves:    4738
 k-point 19 :   0.4901 0.4901 0.4802  plane waves:    4728
 k-point 20 :   0.4901 0.5099 0.5000  plane waves:    4728
 k-point 21 :   0.4901 0.5198 0.5099  plane waves:    4738
 k-point 22 :   0.5099 0.4802 0.4901  plane waves:    4738
 k-point 23 :   0.5099 0.4901 0.5000  plane waves:    4728
 k-point 24 :   0.5099 0.5099 0.5198  plane waves:    4728
 k-point 25 :   0.5099 0.5198 0.5296  plane waves:    4738
 k-point 26 :   0.5198 0.4802 0.5000  plane waves:    4736
 k-point 27 :   0.5198 0.4901 0.5099  plane waves:    4738
 k-point 28 :   0.5198 0.5099 0.5296  plane waves:    4738
 k-point 29 :   0.5198 0.5198 0.5395  plane waves:    4742
 k-point 30 :   0.4802 0.4605 0.4802  plane waves:    4742
 k-point 31 :   0.4802 0.4704 0.4901  plane waves:    4738
 k-point 32 :   0.4802 0.4901 0.5099  plane waves:    4738
 k-point 33 :   0.4802 0.5000 0.5198  plane waves:    4736
 k-point 34 :   0.4901 0.4704 0.4802  plane waves:    4738
 k-point 35 :   0.4901 0.4802 0.4901  plane waves:    4728
 k-point 36 :   0.4901 0.5000 0.5099  plane waves:    4728
 k-point 37 :   0.4901 0.5099 0.5198  plane waves:    4738
 k-point 38 :   0.5099 0.4901 0.4802  plane waves:    4738
 k-point 39 :   0.5099 0.5000 0.4901  plane waves:    4728
 k-point 40 :   0.5099 0.5198 0.5099  plane waves:    4728
 k-point 41 :   0.5099 0.5296 0.5198  plane waves:    4738
 k-point 42 :   0.5198 0.5000 0.4802  plane waves:    4736
 k-point 43 :   0.5198 0.5099 0.4901  plane waves:    4738
 k-point 44 :   0.5198 0.5296 0.5099  plane waves:    4738
 k-point 45 :   0.5198 0.5395 0.5198  plane waves:    4742
 k-point 46 :   0.4605 0.4802 0.4802  plane waves:    4742
 k-point 47 :   0.4704 0.4802 0.4901  plane waves:    4738
 k-point 48 :   0.4901 0.4802 0.5099  plane waves:    4738
 k-point 49 :   0.5000 0.4802 0.5198  plane waves:    4736
 k-point 50 :   0.4704 0.4901 0.4802  plane waves:    4738
 k-point 51 :   0.4802 0.4901 0.4901  plane waves:    4728
 k-point 52 :   0.5000 0.4901 0.5099  plane waves:    4728
 k-point 53 :   0.5099 0.4901 0.5198  plane waves:    4738
 k-point 54 :   0.4901 0.5099 0.4802  plane waves:    4738
 k-point 55 :   0.5000 0.5099 0.4901  plane waves:    4728
 k-point 56 :   0.5198 0.5099 0.5099  plane waves:    4728
 k-point 57 :   0.5296 0.5099 0.5198  plane waves:    4738
 k-point 58 :   0.5000 0.5198 0.4802  plane waves:    4736
 k-point 59 :   0.5099 0.5198 0.4901  plane waves:    4738
 k-point 60 :   0.5296 0.5198 0.5099  plane waves:    4738
 k-point 61 :   0.5395 0.5198 0.5198  plane waves:    4742

 maximum and minimum number of plane-waves per node :      2372     2362

 maximum number of plane-waves:      4742
 maximum index in each direction: 
   IXMAX=    8   IYMAX=    8   IZMAX=    8
   IXMIN=   -9   IYMIN=   -9   IZMIN=   -9


 parallel 3D FFT for wavefunctions:
    minimum data exchange during FFTs selected (reduces bandwidth)
 parallel 3D FFT for charge:
    minimum data exchange during FFTs selected (reduces bandwidth)


 total amount of memory used by VASP MPI-rank0   196222. kBytes
=======================================================================

   base      :      30000. kBytes
   nonl-proj :      20908. kBytes
   fftplans  :      19686. kBytes
   grid      :      19456. kBytes
   one-center:         62. kBytes
   wavefun   :     106110. kBytes

     INWAV:  cpu time    0.0000: real time    0.0000
 initial charge density was supplied:
 number of electron      20.0000002 magnetization       0.0000029      0.0000029      0.0000029
 keeping initial charge density in first step


--------------------------------------------------------------------------------------------------------


 Maximum index for augmentation-charges        51011 (set IRDMAX)


--------------------------------------------------------------------------------------------------------


 First call to EWALD:  gamma=   0.428
 Maximum number of real-space cells 3x 3x 3
 Maximum number of reciprocal cells 3x 3x 3

    FEWALD:  cpu time    0.0010: real time    0.0010


--------------------------------------- Iteration      1(   1)  ---------------------------------------


    POTLOK:  cpu time    0.2846: real time    0.2849
    SETDIJ:  cpu time    0.3317: real time    0.3320
    TRIAL :  cpu time    9.5802: real time    9.7190
    CORREC:  cpu time    0.0015: real time    0.0015
    --------------------------------------------
      LOOP:  cpu time   10.2310: real time   10.3727

 eigenvalue-minimisations  :  7328
 total energy-change (2. order) : 0.2167354E+03  (-0.1013529E+04)
 number of electron      20.0000002 magnetization       0.0000029      0.0000029      0.0000029
 augmentation part       20.0000002 magnetization       0.0000029      0.0000029      0.0000029

 Free energy of the ion-electron system (eV)
  ---------------------------------------------------
  alpha Z        PSCENC =        34.30176334
  Ewald energy   TEWEN  =     -1366.58178547
  -Hartree energ DENC   =      -513.40574798
  -exchange      EXHF   =         0.00000000
  -V(xc)+E(xc)   XCENC  =         9.71753223
  PAW double counting   =      1878.37875726    -1823.09045373
  entropy T*S    EENTRO =        -0.00009239
  eigenvalues    EBANDS =       112.52669445
  atomic energy  EATOM  =      1884.88874340
  ---------------------------------------------------
  free energy    TOTEN  =       216.73541111 eV

  energy without entropy =      216.73550349  energy(sigma->0) =      216.73545730


--------------------------------------------------------------------------------------------------------




--------------------------------------- Iteration      1(   2)  ---------------------------------------


    TRIAL :  cpu time    9.5406: real time    9.7448
    CORREC:  cpu time    0.0015: real time    0.0015
    --------------------------------------------
      LOOP:  cpu time    9.5424: real time    9.7469

 eigenvalue-minimisations  :  7320
 total energy-change (2. order) :-0.1896609E+03  (-0.1728076E+03)
 number of electron      20.0000002 magnetization       0.0000029      0.0000029      0.0000029
 augmentation part       20.0000002 magnetization       0.0000029      0.0000029      0.0000029

 Free energy of the ion-electron system (eV)
  ---------------------------------------------------
  alpha Z        PSCENC =        34.30176334
  Ewald energy   TEWEN  =     -1366.58178547
  -Hartree energ DENC   =      -513.40574798
  -exchange      EXHF   =         0.00000000
  -V(xc)+E(xc)   XCENC  =         9.71753223
  PAW double counting   =      1878.37875726    -1823.09045373
  entropy T*S    EENTRO =        -0.00011841
  eigenvalues    EBANDS =       -77.13420566
  atomic energy  EATOM  =      1884.88874340
  ---------------------------------------------------
  free energy    TOTEN  =        27.07448497 eV

  energy without entropy =       27.07460338  energy(sigma->0) =       27.07454417


--------------------------------------------------------------------------------------------------------




--------------------------------------- Iteration      1(   3)  ---------------------------------------


    TRIAL :  cpu time   10.4847: real time   10.6390
    CORREC:  cpu time    0.0012: real time    0.0012
    --------------------------------------------
      LOOP:  cpu time   10.4863: real time   10.6407

 eigenvalue-minimisations  :  8168
 total energy-change (2. order) :-0.2740109E+02  (-0.2604924E+02)
 number of electron      20.0000002 magnetization       0.0000029      0.0000029      0.0000029
 augmentation part       20.0000002 magnetization       0.0000029      0.0000029      0.0000029

 Free energy of the ion-electron system (eV)
  ---------------------------------------------------
  alpha Z        PSCENC =        34.30176334
  Ewald energy   TEWEN  =     -1366.58178547
  -Hartree energ DENC   =      -513.40574798
  -exchange      EXHF   =         0.00000000
  -V(xc)+E(xc)   XCENC  =         9.71753223
  PAW double counting   =      1878.37875726    -1823.09045373
  entropy T*S    EENTRO =        -0.00000035
  eigenvalues    EBANDS =      -104.53541634
  atomic energy  EATOM  =      1884.88874340
  ---------------------------------------------------
  free energy    TOTEN  =        -0.32660765 eV

  energy without entropy =       -0.32660730  energy(sigma->0) =       -0.32660748


--------------------------------------------------------------------------------------------------------




--------------------------------------- Iteration      1(   4)  ---------------------------------------


    TRIAL :  cpu time   12.0496: real time   12.2356
    CORREC:  cpu time    0.0005: real time    0.0005
    --------------------------------------------
      LOOP:  cpu time   12.0506: real time   12.2368

 eigenvalue-minimisations  :  9392
 total energy-change (2. order) :-0.1450914E+01  (-0.1443379E+01)
 number of electron      20.0000002 magnetization       0.0000029      0.0000029      0.0000029
 augmentation part       20.0000002 magnetization       0.0000029      0.0000029      0.0000029

 Free energy of the ion-electron system (eV)
  ---------------------------------------------------
  alpha Z        PSCENC =        34.30176334
  Ewald energy   TEWEN  =     -1366.58178547
  -Hartree energ DENC   =      -513.40574798
  -exchange      EXHF   =         0.00000000
  -V(xc)+E(xc)   XCENC  =         9.71753223
  PAW double counting   =      1878.37875726    -1823.09045373
  entropy T*S    EENTRO =        -0.00000000
  eigenvalues    EBANDS =      -105.98633083
  atomic energy  EATOM  =      1884.88874340
  ---------------------------------------------------
  free energy    TOTEN  =        -1.77752179 eV

  energy without entropy =       -1.77752179  energy(sigma->0) =       -1.77752179


--------------------------------------------------------------------------------------------------------




--------------------------------------- Iteration      1(   5)  ---------------------------------------


    TRIAL :  cpu time   13.4383: real time   13.6911
    CORREC:  cpu time    0.0005: real time    0.0005
    --------------------------------------------
      LOOP:  cpu time   13.4392: real time   13.6921

 eigenvalue-minimisations  : 10792
 total energy-change (2. order) :-0.5953257E-01  (-0.5951879E-01)
 number of electron      20.0000002 magnetization       0.0000029      0.0000029      0.0000029
 augmentation part       20.0000002 magnetization       0.0000029      0.0000029      0.0000029

 Free energy of the ion-electron system (eV)
  ---------------------------------------------------
  alpha Z        PSCENC =        34.30176334
  Ewald energy   TEWEN  =     -1366.58178547
  -Hartree energ DENC   =      -513.40574798
  -exchange      EXHF   =         0.00000000
  -V(xc)+E(xc)   XCENC  =         9.71753223
  PAW double counting   =      1878.37875726    -1823.09045373
  entropy T*S    EENTRO =        -0.00000000
  eigenvalues    EBANDS =      -106.04586340
  atomic energy  EATOM  =      1884.88874340
  ---------------------------------------------------
  free energy    TOTEN  =        -1.83705436 eV

  energy without entropy =       -1.83705436  energy(sigma->0) =       -1.83705436


--------------------------------------------------------------------------------------------------------




--------------------------------------- Iteration      1(   6)  ---------------------------------------


    TRIAL :  cpu time    5.9829: real time    6.0799
    CORREC:  cpu time    1.7377: real time    1.7756
    --------------------------------------------
      LOOP:  cpu time    7.7209: real time    7.8557

 eigenvalue-minimisations  :     0
 total energy-change (2. order) :-0.3637979E-11  (-0.4253338E-03)
 number of electron      20.0000002 magnetization       0.0000029      0.0000029      0.0000029
 augmentation part       20.0000002 magnetization       0.0000029      0.0000029      0.0000029

 Free energy of the ion-electron system (eV)
  ---------------------------------------------------
  alpha Z        PSCENC =        34.30176334
  Ewald energy   TEWEN  =     -1366.58178547
  -Hartree energ DENC   =      -513.40574798
  -exchange      EXHF   =         0.00000000
  -V(xc)+E(xc)   XCENC  =         9.71753223
  PAW double counting   =      1878.37875726    -1823.09045373
  entropy T*S    EENTRO =        -0.00000000
  eigenvalues    EBANDS =      -106.04586340
  atomic energy  EATOM  =      1884.88874340
  ---------------------------------------------------
  free energy    TOTEN  =        -1.83705436 eV

  energy without entropy =       -1.83705436  energy(sigma->0) =       -1.83705436


--------------------------------------------------------------------------------------------------------




--------------------------------------- Iteration      1(   7)  ---------------------------------------


    TRIAL :  cpu time    6.4132: real time    6.4774
    CORREC:  cpu time    1.7005: real time    1.7362
    --------------------------------------------
      LOOP:  cpu time    8.1145: real time    8.2145

 eigenvalue-minimisations  :     0
 total energy-change (2. order) :-0.4253337E-03  (-0.1380422E-03)
 number of electron      20.0000002 magnetization       0.0000029      0.0000029      0.0000029
 augmentation part       20.0000002 magnetization       0.0000029      0.0000029      0.0000029

 Free energy of the ion-electron system (eV)
  ---------------------------------------------------
  alpha Z        PSCENC =        34.30176334
  Ewald energy   TEWEN  =     -1366.58178547
  -Hartree energ DENC   =      -513.40574798
  -exchange      EXHF   =         0.00000000
  -V(xc)+E(xc)   XCENC  =         9.71753223
  PAW double counting   =      1878.37875726    -1823.09045373
  entropy T*S    EENTRO =        -0.00000000
  eigenvalues    EBANDS =      -106.04628874
  atomic energy  EATOM  =      1884.88874340
  ---------------------------------------------------
  free energy    TOTEN  =        -1.83747970 eV

  energy without entropy =       -1.83747970  energy(sigma->0) =       -1.83747970


--------------------------------------------------------------------------------------------------------




--------------------------------------- Iteration      1(   8)  ---------------------------------------


    TRIAL :  cpu time    6.4257: real time    6.4958
    CORREC:  cpu time    1.7212: real time    1.7881
    --------------------------------------------
      LOOP:  cpu time    8.1791: real time    8.3163

 eigenvalue-minimisations  :     0
 total energy-change (2. order) :-0.1380400E-03  (-0.4092382E-04)
 number of electron      20.0000002 magnetization       0.0000029      0.0000029      0.0000029
 augmentation part       20.0000002 magnetization       0.0000029      0.0000029      0.0000029

 Free energy of the ion-electron system (eV)
  ---------------------------------------------------
  alpha Z        PSCENC =        34.30176334
  Ewald energy   TEWEN  =     -1366.58178547
  -Hartree energ DENC   =      -513.40574798
  -exchange      EXHF   =         0.00000000
  -V(xc)+E(xc)   XCENC  =         9.71753223
  PAW double counting   =      1878.37875726    -1823.09045373
  entropy T*S    EENTRO =        -0.00000000
  eigenvalues    EBANDS =      -106.04642678
  atomic energy  EATOM  =      1884.88874340
  ---------------------------------------------------
  free energy    TOTEN  =        -1.83761774 eV

  energy without entropy =       -1.83761774  energy(sigma->0) =       -1.83761774


--------------------------------------------------------------------------------------------------------




--------------------------------------- Iteration      1(   9)  ---------------------------------------


    TRIAL :  cpu time    6.0992: real time    6.2123
    CORREC:  cpu time    1.7479: real time    1.7982
    --------------------------------------------
      LOOP:  cpu time    7.8480: real time    8.0114

 eigenvalue-minimisations  :     0
 total energy-change (2. order) :-0.4092361E-04  (-0.1051850E-04)
 number of electron      20.0000002 magnetization       0.0000029      0.0000029      0.0000029
 augmentation part       20.0000002 magnetization       0.0000029      0.0000029      0.0000029

 Free energy of the ion-electron system (eV)
  ---------------------------------------------------
  alpha Z        PSCENC =        34.30176334
  Ewald energy   TEWEN  =     -1366.58178547
  -Hartree energ DENC   =      -513.40574798
  -exchange      EXHF   =         0.00000000
  -V(xc)+E(xc)   XCENC  =         9.71753223
  PAW double counting   =      1878.37875726    -1823.09045373
  entropy T*S    EENTRO =        -0.00000000
  eigenvalues    EBANDS =      -106.04646770
  atomic energy  EATOM  =      1884.88874340
  ---------------------------------------------------
  free energy    TOTEN  =        -1.83765866 eV

  energy without entropy =       -1.83765866  energy(sigma->0) =       -1.83765866


--------------------------------------------------------------------------------------------------------




--------------------------------------- Iteration      1(  10)  ---------------------------------------


    TRIAL :  cpu time    6.1701: real time    6.2484
    CORREC:  cpu time    1.7872: real time    1.7944
    --------------------------------------------
      LOOP:  cpu time    7.9582: real time    8.0438

 eigenvalue-minimisations  :     0
 total energy-change (2. order) :-0.1051833E-04  (-0.2536266E-05)
 number of electron      20.0000002 magnetization       0.0000029      0.0000029      0.0000029
 augmentation part       20.0000002 magnetization       0.0000029      0.0000029      0.0000029

 Free energy of the ion-electron system (eV)
  ---------------------------------------------------
  alpha Z        PSCENC =        34.30176334
  Ewald energy   TEWEN  =     -1366.58178547
  -Hartree energ DENC   =      -513.40574798
  -exchange      EXHF   =         0.00000000
  -V(xc)+E(xc)   XCENC  =         9.71753223
  PAW double counting   =      1878.37875726    -1823.09045373
  entropy T*S    EENTRO =        -0.00000000
  eigenvalues    EBANDS =      -106.04647822
  atomic energy  EATOM  =      1884.88874340
  ---------------------------------------------------
  free energy    TOTEN  =        -1.83766918 eV

  energy without entropy =       -1.83766918  energy(sigma->0) =       -1.83766918


--------------------------------------------------------------------------------------------------------




--------------------------------------- Iteration      1(  11)  ---------------------------------------


    TRIAL :  cpu time    6.2759: real time    6.3429
    CORREC:  cpu time    1.8210: real time    1.8245
    --------------------------------------------
      LOOP:  cpu time    8.0975: real time    8.1680

 eigenvalue-minimisations  :     0
 total energy-change (2. order) :-0.2536222E-05  (-0.4874900E-06)
 number of electron      20.0000002 magnetization       0.0000029      0.0000029      0.0000029
 augmentation part       20.0000002 magnetization       0.0000029      0.0000029      0.0000029

 Free energy of the ion-electron system (eV)
  ---------------------------------------------------
  alpha Z        PSCENC =        34.30176334
  Ewald energy   TEWEN  =     -1366.58178547
  -Hartree energ DENC   =      -513.40574798
  -exchange      EXHF   =         0.00000000
  -V(xc)+E(xc)   XCENC  =         9.71753223
  PAW double counting   =      1878.37875726    -1823.09045373
  entropy T*S    EENTRO =        -0.00000000
  eigenvalues    EBANDS =      -106.04648075
  atomic energy  EATOM  =      1884.88874340
  ---------------------------------------------------
  free energy    TOTEN  =        -1.83767171 eV

  energy without entropy =       -1.83767171  energy(sigma->0) =       -1.83767171


--------------------------------------------------------------------------------------------------------




--------------------------------------- Iteration      1(  12)  ---------------------------------------


    TRIAL :  cpu time    6.4062: real time    6.5182
    CORREC:  cpu time    1.8108: real time    1.8392
    --------------------------------------------
      LOOP:  cpu time    8.2178: real time    8.3582

 eigenvalue-minimisations  :     0
 total energy-change (2. order) :-0.4874869E-06  (-0.1552832E-06)
 number of electron      20.0000002 magnetization       0.0000029      0.0000029      0.0000029
 augmentation part       20.0000002 magnetization       0.0000029      0.0000029      0.0000029

 Free energy of the ion-electron system (eV)
  ---------------------------------------------------
  alpha Z        PSCENC =        34.30176334
  Ewald energy   TEWEN  =     -1366.58178547
  -Hartree energ DENC   =      -513.40574798
  -exchange      EXHF   =         0.00000000
  -V(xc)+E(xc)   XCENC  =         9.71753223
  PAW double counting   =      1878.37875726    -1823.09045373
  entropy T*S    EENTRO =        -0.00000000
  eigenvalues    EBANDS =      -106.04648124
  atomic energy  EATOM  =      1884.88874340
  ---------------------------------------------------
  free energy    TOTEN  =        -1.83767220 eV

  energy without entropy =       -1.83767220  energy(sigma->0) =       -1.83767220


--------------------------------------------------------------------------------------------------------




--------------------------------------- Iteration      1(  13)  ---------------------------------------


    TRIAL :  cpu time    6.2896: real time    6.3777
    CORREC:  cpu time    1.7291: real time    1.7684
    --------------------------------------------
      LOOP:  cpu time    8.0197: real time    8.1470

 eigenvalue-minimisations  :     0
 total energy-change (2. order) :-0.1552855E-06  (-0.2523328E-07)
 number of electron      20.0000002 magnetization       0.0000029      0.0000029      0.0000029
 augmentation part       20.0000002 magnetization       0.0000029      0.0000029      0.0000029

 Free energy of the ion-electron system (eV)
  ---------------------------------------------------
  alpha Z        PSCENC =        34.30176334
  Ewald energy   TEWEN  =     -1366.58178547
  -Hartree energ DENC   =      -513.40574798
  -exchange      EXHF   =         0.00000000
  -V(xc)+E(xc)   XCENC  =         9.71753223
  PAW double counting   =      1878.37875726    -1823.09045373
  entropy T*S    EENTRO =        -0.00000000
  eigenvalues    EBANDS =      -106.04648140
  atomic energy  EATOM  =      1884.88874340
  ---------------------------------------------------
  free energy    TOTEN  =        -1.83767236 eV

  energy without entropy =       -1.83767236  energy(sigma->0) =       -1.83767236


--------------------------------------------------------------------------------------------------------




--------------------------------------- Iteration      1(  14)  ---------------------------------------


    TRIAL :  cpu time    6.1228: real time    6.2889
    CORREC:  cpu time    1.7354: real time    1.7987
    EDDIAG:  cpu time    2.2691: real time    2.3078
    --------------------------------------------
      LOOP:  cpu time   10.1281: real time   10.3961

 eigenvalue-minimisations  :     0
 total energy-change (2. order) :-0.2530805E-07  (-0.6985872E-08)
 number of electron      20.0000002 magnetization       0.0000029      0.0000029      0.0000029
 augmentation part       20.0000002 magnetization       0.0000029      0.0000029      0.0000029

 Free energy of the ion-electron system (eV)
  ---------------------------------------------------
  alpha Z        PSCENC =        34.30176334
  Ewald energy   TEWEN  =     -1366.58178547
  -Hartree energ DENC   =      -513.40574798
  -exchange      EXHF   =         0.00000000
  -V(xc)+E(xc)   XCENC  =         9.71753223
  PAW double counting   =      1878.37875726    -1823.09045373
  entropy T*S    EENTRO =        -0.00000000
  eigenvalues    EBANDS =      -106.04648142
  atomic energy  EATOM  =      1884.88874340
  ---------------------------------------------------
  free energy    TOTEN  =        -1.83767238 eV

  energy without entropy =       -1.83767238  energy(sigma->0) =       -1.83767238


--------------------------------------------------------------------------------------------------------


  average scaling for gradient   1.3171


 average (electrostatic) potential at core
  the test charge radii are     1.1897  1.1541
  (the norm of the test charge is              1.0000)
       1 -88.7235       2 -92.0749



 E-fermi :   5.1375     XC(G=0):  -9.0734     alpha+bet :-10.3015


 k-point     1 :       0.5000    0.5000    0.5000
  band No.  band energies     occupation 
      1     -13.0687      1.00000
      2     -13.0687      1.00000
      3     -13.0625      1.00000
      4     -13.0625      1.00000
      5     -10.5240      1.00000
      6     -10.5240      1.00000
      7     -10.5050      1.00000
      8     -10.5050      1.00000
      9     -10.4943      1.00000
     10     -10.4943      1.00000
     11      -5.3563      1.00000
     12      -5.3563      1.00000
     13      -3.2788      1.00000
     14      -3.2788      1.00000
     15       3.8775      1.00000
     16       3.8775      1.00000
     17       4.4725      1.00000
     18       4.4725      1.00000
     19       5.0719      1.00000
     20       5.0719      1.00000
     21       5.2035      0.00000
     22       5.2035      0.00000
     23       6.3913      0.00000
     24       6.3913      0.00000
     25       6.8705      0.00000
     26       6.8706      0.00000
     27      13.3292      0.00000
     28      13.3292      0.00000
     29      13.8988      0.00000
     30      13.8988      0.00000
     31      14.3201      0.00000
     32      14.3201      0.00000
     33      14.4088      0.00000
     34      14.4088      0.00000
     35      15.4826      0.00000
     36      15.4827      0.00000
     37      15.4977      0.00000
     38      15.4977      0.00000
     39      19.0467      0.00000
     40      19.0467      0.00000
     41      19.5678      0.00000
     42      19.5678      0.00000
     43      20.8696      0.00000
     44      20.8696      0.00000
     45      21.1338      0.00000
     46      21.1338      0.00000
     47      21.1467      0.00000
     48      21.1467      0.00000
     49      21.3059      0.00000
     50      21.3059      0.00000
     51      21.8465      0.00000
     52      21.8465      0.00000
     53      23.4271      0.00000
     54      23.4275      0.00000
     55      25.7331      0.00000
     56      25.7496      0.00000
     57      25.8522      0.00000
     58      25.8980      0.00000
     59      25.9560      0.00000
     60      26.0716      0.00000

 k-point     2 :       0.5000    0.4802    0.4802
  band No.  band energies     occupation 
      1     -13.0687      1.00000
      2     -13.0687      1.00000
      3     -13.0625      1.00000
      4     -13.0625      1.00000
      5     -10.5240      1.00000
      6     -10.5240      1.00000
      7     -10.5051      1.00000
      8     -10.5051      1.00000
      9     -10.4943      1.00000
     10     -10.4943      1.00000
     11      -5.3590      1.00000
     12      -5.3589      1.00000
     13      -3.2705      1.00000
     14      -3.2705      1.00000
     15       3.8562      1.00000
     16       3.8562      1.00000
     17       4.4284      1.00000
     18       4.4284      1.00000
     19       4.9836      1.00000
     20       4.9836      1.00000
     21       5.3132      0.00000
     22       5.3132      0.00000
     23       6.4238      0.00000
     24       6.4238      0.00000
     25       6.9034      0.00000
     26       6.9034      0.00000
     27      13.2479      0.00000
     28      13.2480      0.00000
     29      13.9117      0.00000
     30      13.9118      0.00000
     31      14.2788      0.00000
     32      14.2788      0.00000
     33      14.4141      0.00000
     34      14.4141      0.00000
     35      15.5269      0.00000
     36      15.5269      0.00000
     37      15.5860      0.00000
     38      15.5860      0.00000
     39      18.9952      0.00000
     40      18.9953      0.00000
     41      19.5100      0.00000
     42      19.5100      0.00000
     43      20.6966      0.00000
     44      20.6967      0.00000
     45      21.0916      0.00000
     46      21.0916      0.00000
     47      21.2838      0.00000
     48      21.2838      0.00000
     49      21.4230      0.00000
     50      21.4230      0.00000
     51      21.8751      0.00000
     52      21.8751      0.00000
     53      23.5029      0.00000
     54      23.5032      0.00000
     55      25.4210      0.00000
     56      25.4501      0.00000
     57      25.8087      0.00000
     58      25.8609      0.00000
     59      26.0371      0.00000
     60      26.1203      0.00000

 k-point     3 :       0.5000    0.4901    0.4901
  band No.  band energies     occupation 
      1     -13.0687      1.00000
      2     -13.0687      1.00000
      3     -13.0625      1.00000
      4     -13.0625      1.00000
      5     -10.5240      1.00000
      6     -10.5240      1.00000
      7     -10.5050      1.00000
      8     -10.5050      1.00000
      9     -10.4943      1.00000
     10     -10.4943      1.00000
     11      -5.3570      1.00000
     12      -5.3570      1.00000
     13      -3.2767      1.00000
     14      -3.2767      1.00000
     15       3.8723      1.00000
     16       3.8723      1.00000
     17       4.4611      1.00000
     18       4.4611      1.00000
     19       5.0386      1.00000
     20       5.0386      1.00000
     21       5.2423      0.00000
     22       5.2423      0.00000
     23       6.3997      0.00000
     24       6.3997      0.00000
     25       6.8786      0.00000
     26       6.8786      0.00000
     27      13.3074      0.00000
     28      13.3074      0.00000
     29      13.9040      0.00000
     30      13.9040      0.00000
     31      14.3125      0.00000
     32      14.3128      0.00000
     33      14.4057      0.00000
     34      14.4057      0.00000
     35      15.4969      0.00000
     36      15.4969      0.00000
     37      15.5181      0.00000
     38      15.5182      0.00000
     39      19.0344      0.00000
     40      19.0345      0.00000
     41      19.5520      0.00000
     42      19.5520      0.00000
     43      20.8112      0.00000
     44      20.8112      0.00000
     45      21.0960      0.00000
     46      21.0960      0.00000
     47      21.2389      0.00000
     48      21.2389      0.00000
     49      21.3219      0.00000
     50      21.3219      0.00000
     51      21.8516      0.00000
     52      21.8516      0.00000
     53      23.4460      0.00000
     54      23.4461      0.00000
     55      25.6198      0.00000
     56      25.6714      0.00000
     57      25.7946      0.00000
     58      25.9378      0.00000
     59      25.9873      0.00000
     60      26.1943      0.00000

 k-point     4 :       0.5000    0.5099    0.5099
  band No.  band energies     occupation 
      1     -13.0687      1.00000
      2     -13.0687      1.00000
      3     -13.0625      1.00000
      4     -13.0625      1.00000
      5     -10.5240      1.00000
      6     -10.5240      1.00000
      7     -10.5050      1.00000
      8     -10.5050      1.00000
      9     -10.4943      1.00000
     10     -10.4943      1.00000
     11      -5.3570      1.00000
     12      -5.3570      1.00000
     13      -3.2767      1.00000
     14      -3.2767      1.00000
     15       3.8723      1.00000
     16       3.8723      1.00000
     17       4.4611      1.00000
     18       4.4611      1.00000
     19       5.0386      1.00000
     20       5.0386      1.00000
     21       5.2423      0.00000
     22       5.2423      0.00000
     23       6.3997      0.00000
     24       6.3997      0.00000
     25       6.8786      0.00000
     26       6.8786      0.00000
     27      13.3074      0.00000
     28      13.3075      0.00000
     29      13.9039      0.00000
     30      13.9040      0.00000
     31      14.3125      0.00000
     32      14.3126      0.00000
     33      14.4057      0.00000
     34      14.4057      0.00000
     35      15.4968      0.00000
     36      15.4968      0.00000
     37      15.5180      0.00000
     38      15.5180      0.00000
     39      19.0344      0.00000
     40      19.0345      0.00000
     41      19.5520      0.00000
     42      19.5520      0.00000
     43      20.8112      0.00000
     44      20.8112      0.00000
     45      21.0960      0.00000
     46      21.0960      0.00000
     47      21.2389      0.00000
     48      21.2389      0.00000
     49      21.3219      0.00000
     50      21.3219      0.00000
     51      21.8516      0.00000
     52      21.8516      0.00000
     53      23.4459      0.00000
     54      23.4463      0.00000
     55      25.5919      0.00000
     56      25.6910      0.00000
     57      25.7985      0.00000
     58      25.8426      0.00000
     59      25.9332      0.00000
     60      26.0782      0.00000

 k-point     5 :       0.5000    0.5198    0.5198
  band No.  band energies     occupation 
      1     -13.0687      1.00000
      2     -13.0687      1.00000
      3     -13.0625      1.00000
      4     -13.0625      1.00000
      5     -10.5240      1.00000
      6     -10.5240      1.00000
      7     -10.5051      1.00000
      8     -10.5051      1.00000
      9     -10.4943      1.00000
     10     -10.4943      1.00000
     11      -5.3590      1.00000
     12      -5.3589      1.00000
     13      -3.2705      1.00000
     14      -3.2705      1.00000
     15       3.8562      1.00000
     16       3.8562      1.00000
     17       4.4284      1.00000
     18       4.4284      1.00000
     19       4.9836      1.00000
     20       4.9836      1.00000
     21       5.3132      0.00000
     22       5.3132      0.00000
     23       6.4238      0.00000
     24       6.4238      0.00000
     25       6.9034      0.00000
     26       6.9034      0.00000
     27      13.2479      0.00000
     28      13.2480      0.00000
     29      13.9117      0.00000
     30      13.9119      0.00000
     31      14.2787      0.00000
     32      14.2789      0.00000
     33      14.4141      0.00000
     34      14.4141      0.00000
     35      15.5269      0.00000
     36      15.5269      0.00000
     37      15.5860      0.00000
     38      15.5860      0.00000
     39      18.9952      0.00000
     40      18.9953      0.00000
     41      19.5100      0.00000
     42      19.5100      0.00000
     43      20.6967      0.00000
     44      20.6967      0.00000
     45      21.0916      0.00000
     46      21.0916      0.00000
     47      21.2838      0.00000
     48      21.2838      0.00000
     49      21.4230      0.00000
     50      21.4230      0.00000
     51      21.8751      0.00000
     52      21.8751      0.00000
     53      23.5027      0.00000
     54      23.5030      0.00000
     55      25.4200      0.00000
     56      25.4580      0.00000
     57      25.7352      0.00000
     58      25.8060      0.00000
     59      25.9350      0.00000
     60      26.0845      0.00000

 k-point     6 :       0.4802    0.5000    0.4802
  band No.  band energies     occupation 
      1     -13.0687      1.00000
      2     -13.0687      1.00000
      3     -13.0625      1.00000
      4     -13.0625      1.00000
      5     -10.5240      1.00000
      6     -10.5240      1.00000
      7     -10.5051      1.00000
      8     -10.5051      1.00000
      9     -10.4943      1.00000
     10     -10.4943      1.00000
     11      -5.3590      1.00000
     12      -5.3589      1.00000
     13      -3.2705      1.00000
     14      -3.2705      1.00000
     15       3.8562      1.00000
     16       3.8562      1.00000
     17       4.4284      1.00000
     18       4.4284      1.00000
     19       4.9836      1.00000
     20       4.9836      1.00000
     21       5.3132      0.00000
     22       5.3132      0.00000
     23       6.4238      0.00000
     24       6.4238      0.00000
     25       6.9034      0.00000
     26       6.9034      0.00000
     27      13.2479      0.00000
     28      13.2479      0.00000
     29      13.9117      0.00000
     30      13.9117      0.00000
     31      14.2787      0.00000
     32      14.2788      0.00000
     33      14.4141      0.00000
     34      14.4141      0.00000
     35      15.5269      0.00000
     36      15.5269      0.00000
     37      15.5859      0.00000
     38      15.5860      0.00000
     39      18.9952      0.00000
     40      18.9953      0.00000
     41      19.5100      0.00000
     42      19.5100      0.00000
     43      20.6966      0.00000
     44      20.6967      0.00000
     45      21.0916      0.00000
     46      21.0916      0.00000
     47      21.2838      0.00000
     48      21.2838      0.00000
     49      21.4230      0.00000
     50      21.4230      0.00000
     51      21.8751      0.00000
     52      21.8751      0.00000
     53      23.5028      0.00000
     54      23.5031      0.00000
     55      25.4437      0.00000
     56      25.5972      0.00000
     57      25.7605      0.00000
     58      25.9331      0.00000
     59      26.2296      0.00000
     60      26.3362      0.00000

 k-point     7 :       0.4901    0.5000    0.4901
  band No.  band energies     occupation 
      1     -13.0687      1.00000
      2     -13.0687      1.00000
      3     -13.0625      1.00000
      4     -13.0625      1.00000
      5     -10.5240      1.00000
      6     -10.5240      1.00000
      7     -10.5050      1.00000
      8     -10.5050      1.00000
      9     -10.4943      1.00000
     10     -10.4943      1.00000
     11      -5.3570      1.00000
     12      -5.3570      1.00000
     13      -3.2767      1.00000
     14      -3.2767      1.00000
     15       3.8723      1.00000
     16       3.8723      1.00000
     17       4.4611      1.00000
     18       4.4611      1.00000
     19       5.0386      1.00000
     20       5.0386      1.00000
     21       5.2423      0.00000
     22       5.2423      0.00000
     23       6.3997      0.00000
     24       6.3997      0.00000
     25       6.8786      0.00000
     26       6.8786      0.00000
     27      13.3074      0.00000
     28      13.3074      0.00000
     29      13.9039      0.00000
     30      13.9039      0.00000
     31      14.3125      0.00000
     32      14.3125      0.00000
     33      14.4057      0.00000
     34      14.4057      0.00000
     35      15.4968      0.00000
     36      15.4968      0.00000
     37      15.5180      0.00000
     38      15.5180      0.00000
     39      19.0344      0.00000
     40      19.0345      0.00000
     41      19.5520      0.00000
     42      19.5520      0.00000
     43      20.8112      0.00000
     44      20.8112      0.00000
     45      21.0960      0.00000
     46      21.0960      0.00000
     47      21.2389      0.00000
     48      21.2389      0.00000
     49      21.3219      0.00000
     50      21.3219      0.00000
     51      21.8516      0.00000
     52      21.8516      0.00000
     53      23.4462      0.00000
     54      23.4463      0.00000
     55      25.5988      0.00000
     56      25.6547      0.00000
     57      25.7899      0.00000
     58      25.9314      0.00000
     59      26.1603      0.00000
     60      26.3459      0.00000

 k-point     8 :       0.5099    0.5000    0.5099
  band No.  band energies     occupation 
      1     -13.0687      1.00000
      2     -13.0687      1.00000
      3     -13.0625      1.00000
      4     -13.0625      1.00000
      5     -10.5240      1.00000
      6     -10.5240      1.00000
      7     -10.5050      1.00000
      8     -10.5050      1.00000
      9     -10.4943      1.00000
     10     -10.4943      1.00000
     11      -5.3570      1.00000
     12      -5.3570      1.00000
     13      -3.2767      1.00000
     14      -3.2767      1.00000
     15       3.8723      1.00000
     16       3.8723      1.00000
     17       4.4611      1.00000
     18       4.4611      1.00000
     19       5.0386      1.00000
     20       5.0386      1.00000
     21       5.2423      0.00000
     22       5.2423      0.00000
     23       6.3997      0.00000
     24       6.3997      0.00000
     25       6.8786      0.00000
     26       6.8786      0.00000
     27      13.3074      0.00000
     28      13.3074      0.00000
     29      13.9039      0.00000
     30      13.9039      0.00000
     31      14.3125      0.00000
     32      14.3125      0.00000
     33      14.4057      0.00000
     34      14.4057      0.00000
     35      15.4968      0.00000
     36      15.4969      0.00000
     37      15.5180      0.00000
     38      15.5180      0.00000
     39      19.0344      0.00000
     40      19.0345      0.00000
     41      19.5520      0.00000
     42      19.5520      0.00000
     43      20.8112      0.00000
     44      20.8112      0.00000
     45      21.0960      0.00000
     46      21.0960      0.00000
     47      21.2389      0.00000
     48      21.2389      0.00000
     49      21.3219      0.00000
     50      21.3219      0.00000
     51      21.8516      0.00000
     52      21.8516      0.00000
     53      23.4459      0.00000
     54      23.4460      0.00000
     55      25.5971      0.00000
     56      25.6611      0.00000
     57      25.7635      0.00000
     58      25.8712      0.00000
     59      26.0315      0.00000
     60      26.4219      0.00000

 k-point     9 :       0.5198    0.5000    0.5198
  band No.  band energies     occupation 
      1     -13.0687      1.00000
      2     -13.0687      1.00000
      3     -13.0625      1.00000
      4     -13.0625      1.00000
      5     -10.5240      1.00000
      6     -10.5240      1.00000
      7     -10.5051      1.00000
      8     -10.5051      1.00000
      9     -10.4943      1.00000
     10     -10.4943      1.00000
     11      -5.3590      1.00000
     12      -5.3589      1.00000
     13      -3.2705      1.00000
     14      -3.2705      1.00000
     15       3.8562      1.00000
     16       3.8562      1.00000
     17       4.4284      1.00000
     18       4.4284      1.00000
     19       4.9836      1.00000
     20       4.9836      1.00000
     21       5.3132      0.00000
     22       5.3132      0.00000
     23       6.4238      0.00000
     24       6.4238      0.00000
     25       6.9034      0.00000
     26       6.9034      0.00000
     27      13.2479      0.00000
     28      13.2480      0.00000
     29      13.9118      0.00000
     30      13.9118      0.00000
     31      14.2788      0.00000
     32      14.2788      0.00000
     33      14.4141      0.00000
     34      14.4141      0.00000
     35      15.5269      0.00000
     36      15.5269      0.00000
     37      15.5860      0.00000
     38      15.5860      0.00000
     39      18.9952      0.00000
     40      18.9953      0.00000
     41      19.5100      0.00000
     42      19.5100      0.00000
     43      20.6966      0.00000
     44      20.6967      0.00000
     45      21.0916      0.00000
     46      21.0916      0.00000
     47      21.2838      0.00000
     48      21.2838      0.00000
     49      21.4230      0.00000
     50      21.4230      0.00000
     51      21.8751      0.00000
     52      21.8751      0.00000
     53      23.5027      0.00000
     54      23.5029      0.00000
     55      25.4338      0.00000
     56      25.4700      0.00000
     57      25.7310      0.00000
     58      25.7520      0.00000
     59      25.8828      0.00000
     60      26.0318      0.00000

 k-point    10 :       0.4802    0.4802    0.5000
  band No.  band energies     occupation 
      1     -13.0687      1.00000
      2     -13.0687      1.00000
      3     -13.0625      1.00000
      4     -13.0625      1.00000
      5     -10.5240      1.00000
      6     -10.5240      1.00000
      7     -10.5051      1.00000
      8     -10.5051      1.00000
      9     -10.4943      1.00000
     10     -10.4943      1.00000
     11      -5.3590      1.00000
     12      -5.3589      1.00000
     13      -3.2705      1.00000
     14      -3.2705      1.00000
     15       3.8562      1.00000
     16       3.8562      1.00000
     17       4.4284      1.00000
     18       4.4284      1.00000
     19       4.9836      1.00000
     20       4.9836      1.00000
     21       5.3132      0.00000
     22       5.3132      0.00000
     23       6.4238      0.00000
     24       6.4238      0.00000
     25       6.9034      0.00000
     26       6.9034      0.00000
     27      13.2479      0.00000
     28      13.2480      0.00000
     29      13.9118      0.00000
     30      13.9121      0.00000
     31      14.2788      0.00000
     32      14.2788      0.00000
     33      14.4141      0.00000
     34      14.4141      0.00000
     35      15.5270      0.00000
     36      15.5270      0.00000
     37      15.5861      0.00000
     38      15.5861      0.00000
     39      18.9952      0.00000
     40      18.9953      0.00000
     41      19.5100      0.00000
     42      19.5100      0.00000
     43      20.6966      0.00000
     44      20.6966      0.00000
     45      21.0916      0.00000
     46      21.0916      0.00000
     47      21.2838      0.00000
     48      21.2838      0.00000
     49      21.4230      0.00000
     50      21.4230      0.00000
     51      21.8751      0.00000
     52      21.8751      0.00000
     53      23.5027      0.00000
     54      23.5032      0.00000
     55      25.4359      0.00000
     56      25.4689      0.00000
     57      25.7059      0.00000
     58      25.7851      0.00000
     59      25.9951      0.00000
     60      26.1845      0.00000

 k-point    11 :       0.4901    0.4901    0.5000
  band No.  band energies     occupation 
      1     -13.0687      1.00000
      2     -13.0687      1.00000
      3     -13.0625      1.00000
      4     -13.0625      1.00000
      5     -10.5240      1.00000
      6     -10.5240      1.00000
      7     -10.5050      1.00000
      8     -10.5050      1.00000
      9     -10.4943      1.00000
     10     -10.4943      1.00000
     11      -5.3570      1.00000
     12      -5.3570      1.00000
     13      -3.2767      1.00000
     14      -3.2767      1.00000
     15       3.8723      1.00000
     16       3.8723      1.00000
     17       4.4611      1.00000
     18       4.4611      1.00000
     19       5.0386      1.00000
     20       5.0386      1.00000
     21       5.2423      0.00000
     22       5.2423      0.00000
     23       6.3997      0.00000
     24       6.3997      0.00000
     25       6.8786      0.00000
     26       6.8786      0.00000
     27      13.3074      0.00000
     28      13.3074      0.00000
     29      13.9039      0.00000
     30      13.9039      0.00000
     31      14.3125      0.00000
     32      14.3125      0.00000
     33      14.4057      0.00000
     34      14.4057      0.00000
     35      15.4968      0.00000
     36      15.4968      0.00000
     37      15.5180      0.00000
     38      15.5180      0.00000
     39      19.0344      0.00000
     40      19.0345      0.00000
     41      19.5520      0.00000
     42      19.5520      0.00000
     43      20.8112      0.00000
     44      20.8112      0.00000
     45      21.0960      0.00000
     46      21.0960      0.00000
     47      21.2389      0.00000
     48      21.2389      0.00000
     49      21.3219      0.00000
     50      21.3219      0.00000
     51      21.8516      0.00000
     52      21.8516      0.00000
     53      23.4459      0.00000
     54      23.4460      0.00000
     55      25.6003      0.00000
     56      25.6540      0.00000
     57      25.8651      0.00000
     58      25.9141      0.00000
     59      26.0772      0.00000
     60      26.3132      0.00000

 k-point    12 :       0.5099    0.5099    0.5000
  band No.  band energies     occupation 
      1     -13.0687      1.00000
      2     -13.0687      1.00000
      3     -13.0625      1.00000
      4     -13.0625      1.00000
      5     -10.5240      1.00000
      6     -10.5240      1.00000
      7     -10.5050      1.00000
      8     -10.5050      1.00000
      9     -10.4943      1.00000
     10     -10.4943      1.00000
     11      -5.3570      1.00000
     12      -5.3570      1.00000
     13      -3.2767      1.00000
     14      -3.2767      1.00000
     15       3.8723      1.00000
     16       3.8723      1.00000
     17       4.4611      1.00000
     18       4.4611      1.00000
     19       5.0386      1.00000
     20       5.0386      1.00000
     21       5.2423      0.00000
     22       5.2423      0.00000
     23       6.3997      0.00000
     24       6.3997      0.00000
     25       6.8786      0.00000
     26       6.8786      0.00000
     27      13.3074      0.00000
     28      13.3074      0.00000
     29      13.9039      0.00000
     30      13.9039      0.00000
     31      14.3125      0.00000
     32      14.3125      0.00000
     33      14.4057      0.00000
     34      14.4057      0.00000
     35      15.4968      0.00000
     36      15.4968      0.00000
     37      15.5180      0.00000
     38      15.5180      0.00000
     39      19.0344      0.00000
     40      19.0345      0.00000
     41      19.5520      0.00000
     42      19.5520      0.00000
     43      20.8112      0.00000
     44      20.8112      0.00000
     45      21.0960      0.00000
     46      21.0960      0.00000
     47      21.2389      0.00000
     48      21.2389      0.00000
     49      21.3219      0.00000
     50      21.3219      0.00000
     51      21.8516      0.00000
     52      21.8516      0.00000
     53      23.4459      0.00000
     54      23.4460      0.00000
     55      25.6147      0.00000
     56      25.6768      0.00000
     57      25.7804      0.00000
     58      25.8535      0.00000
     59      26.0649      0.00000
     60      26.3892      0.00000

 k-point    13 :       0.5198    0.5198    0.5000
  band No.  band energies     occupation 
      1     -13.0687      1.00000
      2     -13.0687      1.00000
      3     -13.0625      1.00000
      4     -13.0625      1.00000
      5     -10.5240      1.00000
      6     -10.5240      1.00000
      7     -10.5051      1.00000
      8     -10.5051      1.00000
      9     -10.4943      1.00000
     10     -10.4943      1.00000
     11      -5.3590      1.00000
     12      -5.3589      1.00000
     13      -3.2705      1.00000
     14      -3.2705      1.00000
     15       3.8562      1.00000
     16       3.8562      1.00000
     17       4.4284      1.00000
     18       4.4284      1.00000
     19       4.9836      1.00000
     20       4.9836      1.00000
     21       5.3132      0.00000
     22       5.3132      0.00000
     23       6.4238      0.00000
     24       6.4238      0.00000
     25       6.9034      0.00000
     26       6.9034      0.00000
     27      13.2479      0.00000
     28      13.2480      0.00000
     29      13.9117      0.00000
     30      13.9117      0.00000
     31      14.2787      0.00000
     32      14.2788      0.00000
     33      14.4141      0.00000
     34      14.4141      0.00000
     35      15.5269      0.00000
     36      15.5269      0.00000
     37      15.5859      0.00000
     38      15.5860      0.00000
     39      18.9952      0.00000
     40      18.9953      0.00000
     41      19.5100      0.00000
     42      19.5100      0.00000
     43      20.6966      0.00000
     44      20.6966      0.00000
     45      21.0916      0.00000
     46      21.0916      0.00000
     47      21.2838      0.00000
     48      21.2838      0.00000
     49      21.4230      0.00000
     50      21.4230      0.00000
     51      21.8751      0.00000
     52      21.8751      0.00000
     53      23.5027      0.00000
     54      23.5029      0.00000
     55      25.4186      0.00000
[...]
 -0.000   0.000  -0.000   0.000  -0.000   0.000  12.714   0.000   0.000   0.000  -0.000   0.000  18.326   0.000   0.000   0.000
 -0.000   0.000  -0.000   0.000   0.000  -0.247   0.000   0.000  12.714   0.000   0.000  -0.356   0.000   0.000  18.326   0.000
 -0.000   0.000  -0.000   0.000  18.326   0.000  -0.000   0.000   0.000   0.356  26.426   0.000  -0.000   0.000   0.000   0.513
 -0.000   0.000  -0.000   0.000  -0.000   0.000  18.326   0.000   0.000   0.000  -0.000   0.000  26.426   0.000   0.000   0.000
 -0.000   0.000  -0.000   0.000   0.000  -0.356   0.000   0.000  18.326   0.000   0.000  -0.513   0.000   0.000  26.426   0.000
  0.000   0.000   0.000   0.000  -0.000   0.000  -0.000   0.000  -0.000   0.000  -0.000   0.000  -0.000   0.000  -0.000   0.000
 -0.000   0.000  -0.000   0.000  -0.000   0.000  -0.000   0.000  -0.000   0.000  -0.000   0.000  -0.000   0.000  -0.000   0.000
  0.000   0.000   0.000   0.000   0.000   0.000  -0.000   0.000   0.000   0.000   0.000   0.000  -0.000   0.000   0.000   0.000
  0.000   0.000   0.000   0.000  -0.000   0.000  -0.000   0.000  -0.000   0.000  -0.000   0.000  -0.000   0.000  -0.000   0.000
  0.000   0.000   0.000   0.000   0.000   0.000  -0.000   0.000  -0.000   0.000   0.000   0.000  -0.000   0.000  -0.000   0.000
 pseudopotential strength for first ion, spin component:           2
  0.000  -0.000   0.000  -0.000   0.000   0.000   0.000   0.000   0.000  -0.000   0.000   0.000   0.000   0.000   0.000  -0.000
  0.000  -0.000   0.000  -0.000   0.000   0.000   0.000   0.000   0.000  -0.000   0.000   0.000   0.000   0.000   0.000  -0.000
  0.000   0.000   0.000   0.000   0.000  -0.000   0.000  -0.247  -0.000  -0.000   0.000  -0.000   0.000  -0.356  -0.000  -0.000
  0.000   0.000   0.000   0.000   0.000   0.247   0.000  -0.000  -0.247  -0.000   0.000   0.356   0.000  -0.000  -0.356  -0.000
  0.000  -0.000   0.000  -0.000  -0.000  -0.000   0.247  -0.000   0.000  -0.000  -0.000  -0.000   0.356  -0.000   0.000  -0.000
  0.000   0.000   0.000   0.000   0.000  -0.000   0.000  -0.356  -0.000  -0.000   0.000  -0.000   0.000  -0.513  -0.000  -0.000
  0.000   0.000   0.000   0.000   0.000   0.356   0.000  -0.000  -0.356  -0.000   0.000   0.513   0.000  -0.000  -0.513  -0.000
  0.000  -0.000   0.000  -0.000  -0.000  -0.000   0.356  -0.000   0.000  -0.000  -0.000  -0.000   0.513  -0.000   0.000  -0.000
 -0.000  -0.000  -0.000  -0.000   0.000  -0.000   0.000  -0.000   0.000   0.000   0.000  -0.000   0.000  -0.000   0.000   0.000
  0.000  -0.000   0.000  -0.000   0.000   0.000   0.000   0.000   0.000  -0.000   0.000   0.000   0.000   0.000   0.000  -0.000
 -0.000   0.000  -0.000   0.000  -0.000   0.000   0.000   0.000  -0.000   0.000  -0.000   0.000   0.000   0.000  -0.000   0.000
 -0.000  -0.000  -0.000  -0.000   0.000  -0.000   0.000  -0.000   0.000   0.000   0.000  -0.000   0.000  -0.000   0.000   0.000
  0.000   0.000   0.000   0.000  -0.000  -0.000  -0.000  -0.000   0.000  -0.000  -0.000  -0.000  -0.000  -0.000   0.000  -0.000
 pseudopotential strength for first ion, spin component:           3
  0.000   0.000   0.000   0.000   0.000  -0.000   0.000  -0.000   0.000   0.000   0.000  -0.000   0.000  -0.000   0.000   0.000
  0.000   0.000   0.000   0.000   0.000  -0.000   0.000  -0.000   0.000   0.000   0.000  -0.000   0.000  -0.000   0.000   0.000
  0.000  -0.000   0.000  -0.000   0.000   0.000   0.000  -0.247  -0.000   0.000   0.000   0.000   0.000  -0.356  -0.000   0.000
  0.000  -0.000   0.000  -0.000   0.000   0.247   0.000   0.000   0.247   0.000   0.000   0.356   0.000   0.000   0.356   0.000
  0.000   0.000   0.000   0.000  -0.000   0.000  -0.247   0.000   0.000   0.000  -0.000   0.000  -0.356   0.000   0.000   0.000
  0.000  -0.000   0.000  -0.000   0.000   0.000   0.000  -0.356  -0.000   0.000   0.000   0.000   0.000  -0.513  -0.000   0.000
  0.000  -0.000   0.000  -0.000   0.000   0.356   0.000   0.000   0.356   0.000   0.000   0.513   0.000   0.000   0.513   0.000
  0.000   0.000   0.000   0.000  -0.000   0.000  -0.356   0.000   0.000   0.000  -0.000   0.000  -0.513   0.000   0.000   0.000
 -0.000   0.000  -0.000   0.000   0.000   0.000   0.000   0.000   0.000  -0.000   0.000   0.000   0.000   0.000   0.000  -0.000
  0.000   0.000   0.000   0.000   0.000  -0.000   0.000  -0.000   0.000   0.000   0.000  -0.000   0.000  -0.000   0.000   0.000
 -0.000  -0.000  -0.000  -0.000  -0.000  -0.000   0.000  -0.000  -0.000  -0.000  -0.000  -0.000   0.000  -0.000  -0.000  -0.000
 -0.000   0.000  -0.000   0.000   0.000   0.000   0.000   0.000   0.000  -0.000   0.000   0.000   0.000   0.000   0.000  -0.000
  0.000  -0.000   0.000  -0.000  -0.000   0.000  -0.000   0.000   0.000   0.000  -0.000   0.000  -0.000   0.000   0.000   0.000
 pseudopotential strength for first ion, spin component:           4
 51.584   0.000  56.124   0.000   0.000   0.000   0.000   0.000   0.000   0.000   0.000   0.000   0.000   0.000   0.000   0.000
 56.124   0.000  61.068   0.000   0.000   0.000   0.000   0.000   0.000   0.000   0.000   0.000   0.000   0.000   0.000   0.000
  0.000   0.000   0.000   0.000  12.714   0.000   0.000   0.000  -0.000  -0.247  18.326   0.000   0.000   0.000  -0.000  -0.356
  0.000   0.000   0.000   0.000   0.000   0.000  12.714   0.000  -0.000   0.000   0.000   0.000  18.326   0.000  -0.000   0.000
  0.000   0.000   0.000   0.000  -0.000   0.247  -0.000   0.000  12.714   0.000  -0.000   0.356  -0.000   0.000  18.326   0.000
  0.000   0.000   0.000   0.000  18.326   0.000   0.000   0.000  -0.000  -0.356  26.426   0.000   0.000   0.000  -0.000  -0.513
  0.000   0.000   0.000   0.000   0.000   0.000  18.326   0.000  -0.000   0.000   0.000   0.000  26.426   0.000  -0.000   0.000
  0.000   0.000   0.000   0.000  -0.000   0.356  -0.000   0.000  18.326   0.000  -0.000   0.513  -0.000   0.000  26.426   0.000
 -0.000   0.000  -0.000   0.000   0.000   0.000   0.000   0.000   0.000   0.000   0.000   0.000   0.000   0.000   0.000   0.000
  0.000   0.000   0.000   0.000   0.000   0.000   0.000   0.000   0.000   0.000   0.000   0.000   0.000   0.000   0.000   0.000
 -0.000   0.000  -0.000   0.000  -0.000   0.000   0.000   0.000  -0.000   0.000  -0.000   0.000   0.000   0.000  -0.000   0.000
 -0.000   0.000  -0.000   0.000   0.000   0.000   0.000   0.000   0.000   0.000   0.000   0.000   0.000   0.000   0.000   0.000
 -0.000   0.000  -0.000   0.000  -0.000   0.000   0.000   0.000   0.000   0.000  -0.000   0.000   0.000   0.000   0.000   0.000
 total augmentation occupancy for first ion, spin component:           1
  2.000   0.000   0.000   0.000   0.000   0.000   0.000   0.000   0.000   0.000   0.000   0.000   0.000
  0.000   0.000   0.000   0.000   0.000   0.000   0.000   0.000   0.000   0.000   0.000   0.000   0.000
  0.000   0.000   1.333   0.000   0.000   0.000   0.000   0.000   0.000   0.000   0.000   0.000   0.000
  0.000   0.000   0.000   1.333   0.000   0.000   0.000   0.000   0.000   0.000   0.000   0.000   0.000
  0.000   0.000   0.000   0.000   1.333   0.000   0.000   0.000   0.000   0.000   0.000   0.000   0.000
  0.000   0.000   0.000   0.000   0.000   0.000   0.000   0.000   0.000   0.000   0.000   0.000   0.000
  0.000   0.000   0.000   0.000   0.000   0.000   0.000   0.000   0.000   0.000   0.000   0.000   0.000
  0.000   0.000   0.000   0.000   0.000   0.000   0.000   0.000   0.000   0.000   0.000   0.000   0.000
  0.000   0.000   0.000   0.000   0.000   0.000   0.000   0.000   0.000   0.000   0.000   0.000   0.000
  0.000   0.000   0.000   0.000   0.000   0.000   0.000   0.000   0.000   0.000   0.000   0.000   0.000
  0.000   0.000   0.000   0.000   0.000   0.000   0.000   0.000   0.000   0.000   0.000   0.000   0.000
  0.000   0.000   0.000   0.000   0.000   0.000   0.000   0.000   0.000   0.000   0.000   0.000   0.000
  0.000   0.000   0.000   0.000   0.000   0.000   0.000   0.000   0.000   0.000   0.000   0.000   0.000
 total augmentation occupancy for first ion, spin component:           2
  0.333   0.000   0.000   0.000   0.000   0.000   0.000   0.000   0.000   0.000   0.000   0.000   0.000
  0.000   0.000   0.000   0.000   0.000   0.000   0.000   0.000   0.000   0.000   0.000   0.000   0.000
  0.000   0.000   0.222   0.000   0.000   0.000   0.000   0.000   0.000   0.000   0.000   0.000   0.000
  0.000   0.000   0.000   0.222   0.000   0.000   0.000   0.000   0.000   0.000   0.000   0.000   0.000
  0.000   0.000   0.000   0.000   0.222   0.000   0.000   0.000   0.000   0.000   0.000   0.000   0.000
  0.000   0.000   0.000   0.000   0.000   0.000   0.000   0.000   0.000   0.000   0.000   0.000   0.000
  0.000   0.000   0.000   0.000   0.000   0.000   0.000   0.000   0.000   0.000   0.000   0.000   0.000
  0.000   0.000   0.000   0.000   0.000   0.000   0.000   0.000   0.000   0.000   0.000   0.000   0.000
  0.000   0.000   0.000   0.000   0.000   0.000   0.000   0.000   0.000   0.000   0.000   0.000   0.000
  0.000   0.000   0.000   0.000   0.000   0.000   0.000   0.000   0.000   0.000   0.000   0.000   0.000
  0.000   0.000   0.000   0.000   0.000   0.000   0.000   0.000   0.000   0.000   0.000   0.000   0.000
  0.000   0.000   0.000   0.000   0.000   0.000   0.000   0.000   0.000   0.000   0.000   0.000   0.000
  0.000   0.000   0.000   0.000   0.000   0.000   0.000   0.000   0.000   0.000   0.000   0.000   0.000
 total augmentation occupancy for first ion, spin component:           3
  0.333   0.000   0.000   0.000   0.000   0.000   0.000   0.000   0.000   0.000   0.000   0.000   0.000
  0.000   0.000   0.000   0.000   0.000   0.000   0.000   0.000   0.000   0.000   0.000   0.000   0.000
  0.000   0.000   0.222   0.000   0.000   0.000   0.000   0.000   0.000   0.000   0.000   0.000   0.000
  0.000   0.000   0.000   0.222   0.000   0.000   0.000   0.000   0.000   0.000   0.000   0.000   0.000
  0.000   0.000   0.000   0.000   0.222   0.000   0.000   0.000   0.000   0.000   0.000   0.000   0.000
  0.000   0.000   0.000   0.000   0.000   0.000   0.000   0.000   0.000   0.000   0.000   0.000   0.000
  0.000   0.000   0.000   0.000   0.000   0.000   0.000   0.000   0.000   0.000   0.000   0.000   0.000
  0.000   0.000   0.000   0.000   0.000   0.000   0.000   0.000   0.000   0.000   0.000   0.000   0.000
  0.000   0.000   0.000   0.000   0.000   0.000   0.000   0.000   0.000   0.000   0.000   0.000   0.000
  0.000   0.000   0.000   0.000   0.000   0.000   0.000   0.000   0.000   0.000   0.000   0.000   0.000
  0.000   0.000   0.000   0.000   0.000   0.000   0.000   0.000   0.000   0.000   0.000   0.000   0.000
  0.000   0.000   0.000   0.000   0.000   0.000   0.000   0.000   0.000   0.000   0.000   0.000   0.000
  0.000   0.000   0.000   0.000   0.000   0.000   0.000   0.000   0.000   0.000   0.000   0.000   0.000
 total augmentation occupancy for first ion, spin component:           4
  0.333   0.000   0.000   0.000   0.000   0.000   0.000   0.000   0.000   0.000   0.000   0.000   0.000
  0.000   0.000   0.000   0.000   0.000   0.000   0.000   0.000   0.000   0.000   0.000   0.000   0.000
  0.000   0.000   0.222   0.000   0.000   0.000   0.000   0.000   0.000   0.000   0.000   0.000   0.000
  0.000   0.000   0.000   0.222   0.000   0.000   0.000   0.000   0.000   0.000   0.000   0.000   0.000
  0.000   0.000   0.000   0.000   0.222   0.000   0.000   0.000   0.000   0.000   0.000   0.000   0.000
  0.000   0.000   0.000   0.000   0.000   0.000   0.000   0.000   0.000   0.000   0.000   0.000   0.000
  0.000   0.000   0.000   0.000   0.000   0.000   0.000   0.000   0.000   0.000   0.000   0.000   0.000
  0.000   0.000   0.000   0.000   0.000   0.000   0.000   0.000   0.000   0.000   0.000   0.000   0.000
  0.000   0.000   0.000   0.000   0.000   0.000   0.000   0.000   0.000   0.000   0.000   0.000   0.000
  0.000   0.000   0.000   0.000   0.000   0.000   0.000   0.000   0.000   0.000   0.000   0.000   0.000
  0.000   0.000   0.000   0.000   0.000   0.000   0.000   0.000   0.000   0.000   0.000   0.000   0.000
  0.000   0.000   0.000   0.000   0.000   0.000   0.000   0.000   0.000   0.000   0.000   0.000   0.000
  0.000   0.000   0.000   0.000   0.000   0.000   0.000   0.000   0.000   0.000   0.000   0.000   0.000


------------------------ aborting loop because EDIFF is reached ----------------------------------------


    CHARGE:  cpu time    0.7781: real time    0.7784
    FORLOC:  cpu time    0.0059: real time    0.0061
    FORNL :  cpu time    3.1956: real time    3.2269
    STRESS:  cpu time    8.3039: real time    8.4651
    FORCOR:  cpu time    0.2447: real time    0.2450
    FORHAR:  cpu time    0.0225: real time    0.0225
    OFIELD:  cpu time    0.0023: real time    0.0022

  FORCE on cell =-STRESS in cart. coord.  units (eV):
  Direction    XX          YY          ZZ          XY          YZ          ZX
  --------------------------------------------------------------------------------------
  Alpha Z    34.30176    34.30176    34.30176
  Ewald    -455.52738  -455.52738  -455.52738    -0.00000    -0.00000     0.00000
  Hartree   168.82511   168.82511   168.82511    -0.08826    -0.08825    -0.08825
  E(xc)     -90.68616   -90.68616   -90.68616     0.14445     0.14445     0.14445
  Local    -129.64786  -129.64787  -129.64786     2.16885     2.16885     2.16885
  n-local   181.11986   181.11987   181.11987    -1.67513    -1.67513    -1.67513
  augment    95.62833    95.62833    95.62833     0.31301     0.31301     0.31301
  Kinetic   203.04362   203.04362   203.04362    -6.59324    -6.59324    -6.59324
  Fock        0.00000     0.00000     0.00000     0.00000     0.00000     0.00000
  -------------------------------------------------------------------------------------
  Total       7.05727     7.05727     7.05728    -5.73031    -5.73031    -5.73031
  in kB     159.58209   159.58209   159.58220  -129.57638  -129.57638  -129.57637
  external pressure =      159.58 kB  Pullay stress =        0.00 kB


 VOLUME and BASIS-vectors are now :
 -----------------------------------------------------------------------------
  energy-cutoff  :      600.00
  volume of cell :       70.85
      direct lattice vectors                 reciprocal lattice vectors
     0.000000000  3.284311990  3.284311990    -0.152238886  0.152238886  0.152238886
     3.284311990  0.000000000  3.284311990     0.152238886 -0.152238886  0.152238886
     3.284311990  3.284311990  0.000000000     0.152238886  0.152238886 -0.152238886

  length of vectors
     4.644718559  4.644718559  4.644718559     0.263685486  0.263685486  0.263685486


 FORCES acting on ions
    electron-ion (+dipol)            ewald-force                    non-local-force                 convergence-correction
 -----------------------------------------------------------------------------------------------
   0.117E-06 0.245E-06 -.100E-05   -.250E-14 -.153E-15 -.177E-14   -.962E-07 0.114E-06 0.638E-07   0.436E-07 -.709E-07 0.276E-06
   0.184E-05 -.935E-06 -.762E-05   0.299E-14 -.257E-14 0.172E-14   0.340E-05 -.319E-05 0.917E-05   -.156E-05 0.526E-06 0.427E-05
 -----------------------------------------------------------------------------------------------
   0.196E-05 -.691E-06 -.863E-05   0.491E-15 -.272E-14 -.560E-16   0.330E-05 -.308E-05 0.923E-05   -.152E-05 0.455E-06 0.455E-05


 POSITION                                       TOTAL-FORCE (eV/Angst)
 -----------------------------------------------------------------------------------
      0.00000      0.00000      0.00000        -0.000002      0.000002     -0.000003
      3.28431      3.28431      3.28431         0.000002     -0.000002      0.000003
 -----------------------------------------------------------------------------------
    total drift:                                0.000004     -0.000003      0.000005


--------------------------------------------------------------------------------------------------------



  FREE ENERGIE OF THE ION-ELECTRON SYSTEM (eV)
  ---------------------------------------------------
  free  energy   TOTEN  =        -1.83767238 eV

  energy  without entropy=       -1.83767238  energy(sigma->0) =       -1.83767238



--------------------------------------------------------------------------------------------------------


    POTLOK:  cpu time    0.6215: real time    0.6215


--------------------------------------------------------------------------------------------------------


     LOOP+:  cpu time  143.5922: real time  145.9904
    4ORBIT:  cpu time    0.0000: real time    0.0000

 Spin-Orbit-Coupling matrix elements

 Ion:    1  E_soc:     -0.2682726
 l=   1
     0.0000000    -0.0449960    -0.0449961
    -0.0449960     0.0000000    -0.0449961
    -0.0449961    -0.0449961     0.0000000
 l=   2
     0.0000000    -0.0000464     0.0000000    -0.0000464     0.0003303
    -0.0000464     0.0000000     0.0002477    -0.0000464     0.0000826
     0.0000000     0.0002477     0.0000000     0.0002477     0.0000000
    -0.0000464    -0.0000464     0.0002477     0.0000000     0.0000826
     0.0003303     0.0000826     0.0000000     0.0000826     0.0000000
 l=   3
     0.0000000     0.0000000     0.0000000     0.0000000     0.0000000     0.0000000     0.0000000
     0.0000000     0.0000000     0.0000000     0.0000000     0.0000000     0.0000000     0.0000000
     0.0000000     0.0000000     0.0000000     0.0000000     0.0000000     0.0000000     0.0000000
     0.0000000     0.0000000     0.0000000     0.0000000     0.0000000     0.0000000     0.0000000
     0.0000000     0.0000000     0.0000000     0.0000000     0.0000000     0.0000000     0.0000000
     0.0000000     0.0000000     0.0000000     0.0000000     0.0000000     0.0000000     0.0000000
     0.0000000     0.0000000     0.0000000     0.0000000     0.0000000     0.0000000     0.0000000

 Ion:    2  E_soc:     -0.9109236
 l=   1
     0.0000000    -0.0854040    -0.0854040
    -0.0854040     0.0000000    -0.0854040
    -0.0854040    -0.0854040     0.0000000
 l=   2
     0.0000000    -0.0133798     0.0000000    -0.0133798    -0.0530368
    -0.0133798     0.0000000    -0.0397776    -0.0133798    -0.0132592
     0.0000000    -0.0397776     0.0000000    -0.0397777     0.0000000
    -0.0133798    -0.0133798    -0.0397777     0.0000000    -0.0132592
    -0.0530368    -0.0132592     0.0000000    -0.0132592     0.0000000
 l=   3
     0.0000000     0.0000000     0.0000000     0.0000000     0.0000000     0.0000000     0.0000000
     0.0000000     0.0000000     0.0000000     0.0000000     0.0000000     0.0000000     0.0000000
     0.0000000     0.0000000     0.0000000     0.0000000     0.0000000     0.0000000     0.0000000
     0.0000000     0.0000000     0.0000000     0.0000000     0.0000000     0.0000000     0.0000000
     0.0000000     0.0000000     0.0000000     0.0000000     0.0000000     0.0000000     0.0000000
     0.0000000     0.0000000     0.0000000     0.0000000     0.0000000     0.0000000     0.0000000
     0.0000000     0.0000000     0.0000000     0.0000000     0.0000000     0.0000000     0.0000000

 total amount of memory used by VASP MPI-rank0   196222. kBytes
=======================================================================

   base      :      30000. kBytes
   nonl-proj :      20908. kBytes
   fftplans  :      19686. kBytes
   grid      :      19456. kBytes
   one-center:         62. kBytes
   wavefun   :     106110. kBytes

  
  
 General timing and accounting informations for this job:
 ========================================================
  
                  Total CPU time used (sec):      148.732
                            User time (sec):      145.812
                          System time (sec):        2.920
                         Elapsed time (sec):      151.500
  
                   Maximum memory used (kb):      256368.
                   Average memory used (kb):           0.
  
                          Minor page faults:       506964
                          Major page faults:            0
                 Voluntary context switches:         5090
