 vasp.5.4.4.18Apr17-6-g9f103f2a35 (build Mar 20 2018 18:01:20) complex           
 executed on             LinuxGNU date 2020.07.13  20:40:41
 running on    8 total cores
 distrk:  each k-point on    8 cores,    1 groups
 distr:  one band on NCORES_PER_BAND=   2 cores,    4 groups


--------------------------------------------------------------------------------------------------------


 INCAR:
 POTCAR:    PAW_PBE Sn_d 06Sep2000                
 POTCAR:    PAW_PBE Se 06Sep2000                  
 POTCAR:    PAW_PBE Sn_d 06Sep2000                
   VRHFIN =Sn: s2p2                                                             
   LEXCH  = PE                                                                  
   EATOM  =  1893.1092 eV,  139.1396 Ry                                         
                                                                                
   TITEL  = PAW_PBE Sn_d 06Sep2000                                              
   LULTRA =        F    use ultrasoft PP ?                                      
   IUNSCR =        1    unscreen: 0-lin 1-nonlin 2-no                           
   RPACOR =    2.300    partial core radius                                     
   POMASS =  118.710; ZVAL   =   14.000    mass and valenz                      
   RCORE  =    2.500    outmost cutoff radius                                   
   RWIGS  =    2.960; RWIGS  =    1.566    wigner-seitz radius (au A)           
   ENMAX  =  241.083; ENMIN  =  180.812 eV                                      
   ICORE  =        3    local potential                                         
   LCOR   =        T    correct aug charges                                     
   LPAW   =        T    paw PP                                                  
   EAUG   =  439.825                                                            
   DEXC   =    0.000                                                            
   RMAX   =    2.560    core radius for proj-oper                               
   RAUG   =    1.300    factor for augmentation sphere                          
   RDEP   =    2.659    radius for radial grids                                 
   RDEPT  =    2.046    core radius for aug-charge                              
                                                                                
   Atomic configuration                                                         
   12 entries                                                                   
     n  l   j            E        occ.                                          
     1  0  0.50    -29007.2859   2.0000                                         
     2  0  0.50     -4378.8056   2.0000                                         
     2  1  1.50     -3930.4293   6.0000                                         
     3  0  0.50      -845.0264   2.0000                                         
     3  1  1.50      -698.5725   6.0000                                         
     3  2  2.50      -473.2839  10.0000                                         
     4  0  0.50      -133.9036   2.0000                                         
     4  1  1.50       -89.6752   6.0000                                         
     4  2  2.50       -25.8375  10.0000                                         
     5  0  0.50       -10.5484   2.0000                                         
     5  1  0.50        -3.6940   2.0000                                         
     4  3  2.50        -2.7416   0.0000                                         
   Description                                                                  
     l       E           TYP  RCUT    TYP  RCUT                                 
     2    -25.8374624     23  2.500                                             
     2     -5.4423304     23  2.500                                             
     0    -10.5483727     23  2.500                                             
     0     13.6058260     23  2.500                                             
     1     -3.6939829     23  2.500                                             
     1      1.9821976     23  2.500                                             
     3     -1.3605826      7  2.500                                             
  local pseudopotential read in
  partial core-charges read in
  partial kinetic energy density read in
  atomic valenz-charges read in
  non local Contribution for L=           2  read in
    real space projection operators read in
  non local Contribution for L=           2  read in
    real space projection operators read in
  non local Contribution for L=           0  read in
    real space projection operators read in
  non local Contribution for L=           0  read in
    real space projection operators read in
  non local Contribution for L=           1  read in
    real space projection operators read in
  non local Contribution for L=           1  read in
    real space projection operators read in
    PAW grid and wavefunctions read in

   number of l-projection  operators is LMAX  =           6
   number of lm-projection operators is LMMAX =          18

 POTCAR:    PAW_PBE Se 06Sep2000                  
   VRHFIN =Se: s2p4                                                             
   LEXCH  = PE                                                                  
   EATOM  =   257.1286 eV,   18.8984 Ry                                         
                                                                                
   TITEL  = PAW_PBE Se 06Sep2000                                                
   LULTRA =        F    use ultrasoft PP ?                                      
   IUNSCR =        1    unscreen: 0-lin 1-nonlin 2-no                           
   RPACOR =    1.900    partial core radius                                     
   POMASS =   78.960; ZVAL   =    6.000    mass and valenz                      
   RCORE  =    2.100    outmost cutoff radius                                   
   RWIGS  =    2.200; RWIGS  =    1.164    wigner-seitz radius (au A)           
   ENMAX  =  211.555; ENMIN  =  158.666 eV                                      
   ICORE  =        3    local potential                                         
   LCOR   =        T    correct aug charges                                     
   LPAW   =        T    paw PP                                                  
   EAUG   =  446.842                                                            
   DEXC   =    0.000                                                            
   RMAX   =    2.147    core radius for proj-oper                               
   RAUG   =    1.300    factor for augmentation sphere                          
   RDEP   =    2.177    radius for radial grids                                 
   RDEPT  =    1.928    core radius for aug-charge                              
                                                                                
   Atomic configuration                                                         
   10 entries                                                                   
     n  l   j            E        occ.                                          
     1  0  0.50    -12503.4787   2.0000                                         
     2  0  0.50     -1606.9547   2.0000                                         
     2  1  1.50     -1413.3140   6.0000                                         
     3  0  0.50      -213.4885   2.0000                                         
     3  1  1.50      -152.9538   6.0000                                         
     3  2  2.50       -53.1221  10.0000                                         
     4  0  0.50       -17.2865   2.0000                                         
     4  1  0.50        -6.5110   4.0000                                         
     4  2  2.50        -6.8029   0.0000                                         
     4  3  2.50        -6.8029   0.0000                                         
   Description                                                                  
     l       E           TYP  RCUT    TYP  RCUT                                 
     0    -17.2865377     23  2.100                                             
     0    -15.3094411     23  2.100                                             
     1     -6.5110275     23  2.100                                             
     1     -0.0695192     23  2.100                                             
     2     -6.8029130     23  2.100                                             
     3     -1.3605826      7  2.100                                             
  local pseudopotential read in
  partial core-charges read in
  partial kinetic energy density read in
  atomic valenz-charges read in
  non local Contribution for L=           0  read in
    real space projection operators read in
  non local Contribution for L=           0  read in
    real space projection operators read in
  non local Contribution for L=           1  read in
    real space projection operators read in
  non local Contribution for L=           1  read in
    real space projection operators read in
  non local Contribution for L=           2  read in
    real space projection operators read in
    PAW grid and wavefunctions read in

   number of l-projection  operators is LMAX  =           5
   number of lm-projection operators is LMMAX =          13

  PAW_PBE Sn_d 06Sep2000                :
 energy of atom  1       EATOM=-1893.1092
 kinetic energy error for atom=    0.0010 (will be added to EATOM!!)
  PAW_PBE Se 06Sep2000                  :
 energy of atom  2       EATOM= -257.1286
 kinetic energy error for atom=    0.0006 (will be added to EATOM!!)


 POSCAR: Sn4 Se4                                 
  positions in direct lattice
  No initial velocities read in
 exchange correlation table for  LEXCH =        8
   RHO(1)=    0.500       N(1)  =     2000
   RHO(2)=  100.500       N(2)  =     4000



--------------------------------------------------------------------------------------------------------


 ion  position               nearest neighbor table
   1  0.250  0.113  0.117-   7 2.79   5 2.80   5 2.80   2 3.57   2 3.57
   2  0.750  0.887  0.883-   8 2.79   6 2.80   6 2.80   1 3.57   1 3.57
   3  0.750  0.613  0.383-   5 2.79   7 2.80   7 2.80   4 3.57   4 3.57
   4  0.250  0.387  0.617-   6 2.79   8 2.80   8 2.80   3 3.57   3 3.57
   5  0.750  0.518  0.145-   3 2.79   1 2.80   1 2.80
   6  0.250  0.482  0.855-   4 2.79   2 2.80   2 2.80
   7  0.250  0.018  0.355-   1 2.79   3 2.80   3 2.80
   8  0.750  0.982  0.645-   2 2.79   4 2.80   4 2.80

  LATTYP: Found a simple orthorhombic cell.
 ALAT       =     4.1721418300
 B/A-ratio  =     1.0918152488
 C/A-ratio  =     2.7774736340
  
  Lattice vectors:
  
 A1 = (   4.1721418300,   0.0000000000,   0.0000000000)
 A2 = (   0.0000000000,   4.5552080700,   0.0000000000)
 A3 = (   0.0000000000,   0.0000000000,  11.5880139300)


Analysis of symmetry for initial positions (statically):
=====================================================================
 Subroutine PRICEL returns:
 Original cell was already a primitive cell.
 

 Routine SETGRP: Setting up the symmetry group for a 
 simple orthorhombic supercell.


 Subroutine GETGRP returns: Found  8 space group operations
 (whereof  2 operations were pure point group operations)
 out of a pool of  8 trial point group operations.


The static configuration has the point symmetry S_2 .
 The point group associated with its full space group is D_2h.


Analysis of symmetry for dynamics (positions and initial velocities):
=====================================================================
 Subroutine PRICEL returns:
 Original cell was already a primitive cell.
 

 Routine SETGRP: Setting up the symmetry group for a 
 simple orthorhombic supercell.


 Subroutine GETGRP returns: Found  8 space group operations
 (whereof  2 operations were pure point group operations)
 out of a pool of  8 trial point group operations.


The dynamic configuration has the point symmetry S_2 .
 The point group associated with its full space group is D_2h.


 Subroutine INISYM returns: Found  8 space group operations
 (whereof  2 operations are pure point group operations),
 and found     1 'primitive' translations



 KPOINTS: Non SCF run along symmetry lines        
  k-points in reciprocal lattice
Space group operators:
 irot       det(A)        alpha          n_x          n_y          n_z        tau_x        tau_y        tau_z
    1     1.000000     0.000000     1.000000     0.000000     0.000000     0.000000     0.000000     0.000000
    2    -1.000000     0.000000     1.000000     0.000000     0.000000     0.000000     0.000000     0.000000
    3     1.000000   179.999999     0.000000     0.000000     1.000000     0.500000     0.500000     0.500000
    4    -1.000000   179.999999     0.000000     0.000000     1.000000     0.500000     0.500000     0.500000
    5     1.000000   180.000000     0.000000     1.000000     0.000000     0.000000     0.500000     0.500000
    6    -1.000000   180.000000     0.000000     1.000000     0.000000     0.000000     0.500000     0.500000
    7     1.000000   180.000000     1.000000     0.000000     0.000000     0.500000     0.000000     0.000000
    8    -1.000000   180.000000     1.000000     0.000000     0.000000     0.500000     0.000000     0.000000


--------------------------------------------------------------------------------------------------------




 Dimension of arrays:
   k-points           NKPTS =    224   k-points in BZ     NKDIM =    224   number of bands    NBANDS=     96
   number of dos      NEDOS =    301   number of ions     NIONS =      8
   non local maximal  LDIM  =      6   non local SUM 2l+1 LMDIM =     18
   total plane-waves  NPLWV = 124416
   max r-space proj   IRMAX =      1   max aug-charges    IRDMAX= 202007
   dimension x,y,z NGX =    36 NGY =   36 NGZ =   96
   dimension x,y,z NGXF=    72 NGYF=   72 NGZF=  192
   support grid    NGXF=   144 NGYF=  144 NGZF=  384
   ions per type =               4   4
   NGX,Y,Z   is equivalent  to a cutoff of  14.34, 13.14, 13.77 a.u.
   NGXF,Y,Z  is equivalent  to a cutoff of  28.69, 26.28, 27.55 a.u.

 SYSTEM =  SnSe                                    
 POSCAR =  Sn4 Se4                                 

 Startparameter for this run:
   NWRITE =      2    write-flag & timer
   PREC   = accura    normal or accurate (medium, high low for compatibility)
   ISTART =      0    job   : 0-new  1-cont  2-samecut
   ICHARG =     11    charge: 1-file 2-atom 10-const
   ISPIN  =      1    spin polarized calculation?
   LNONCOLLINEAR =      F non collinear calculations
   LSORBIT =      F    spin-orbit coupling
   INIWAV =      1    electr: 0-lowe 1-rand  2-diag
   LASPH  =      F    aspherical Exc in radial PAW
   METAGGA=      F    non-selfconsistent MetaGGA calc.

 Electronic Relaxation 1
   ENCUT  =  600.0 eV  44.10 Ry    6.64 a.u.   8.33  9.10 23.14*2*pi/ulx,y,z
   ENINI  =  600.0     initial cutoff
   ENAUG  =  446.8 eV  augmentation charge cutoff
   NELM   =     60;   NELMIN=  2; NELMDL=  0     # of ELM steps 
   EDIFF  = 0.1E-06   stopping-criterion for ELM
   LREAL  =      F    real-space projection
   NLSPLINE    = F    spline interpolate recip. space projectors
   LCOMPAT=      F    compatible to vasp.4.4
   GGA_COMPAT  = T    GGA compatible to vasp.4.4-vasp.4.6
   LMAXPAW     = -100 max onsite density
   LMAXMIX     =    4 max onsite mixed and CHGCAR
   VOSKOWN=      0    Vosko Wilk Nusair interpolation
   ROPT   =    0.00000   0.00000
 Ionic relaxation
   EDIFFG = -.1E-02   stopping-criterion for IOM
   NSW    =      0    number of steps for IOM
   NBLOCK =      1;   KBLOCK =      1    inner block; outer block 
   IBRION =     -1    ionic relax: 0-MD 1-quasi-New 2-CG
   NFREE  =      0    steps in history (QN), initial steepest desc. (CG)
   ISIF   =      2    stress and relaxation
   IWAVPR =     10    prediction:  0-non 1-charg 2-wave 3-comb
   ISYM   =      2    0-nonsym 1-usesym 2-fastsym
   LCORR  =      T    Harris-Foulkes like correction to forces

   POTIM  = 0.5000    time-step for ionic-motion
   TEIN   =    0.0    initial temperature
   TEBEG  =    0.0;   TEEND  =   0.0 temperature during run
   SMASS  =  -3.00    Nose mass-parameter (am)
   estimated Nose-frequenzy (Omega)   =  0.10E-29 period in steps =****** mass=  -0.398E-27a.u.
   SCALEE = 1.0000    scale energy and forces
   NPACO  =    256;   APACO  = 16.0  distance and # of slots for P.C.
   PSTRESS=    0.0 pullay stress

  Mass of Ions in am
   POMASS = 118.71 78.96
  Ionic Valenz
   ZVAL   =  14.00  6.00
  Atomic Wigner-Seitz radii
   RWIGS  =  -1.00 -1.00
  virtual crystal weights 
   VCA    =   1.00  1.00
   NELECT =      80.0000    total number of electrons
   NUPDOWN=      -1.0000    fix difference up-down

 DOS related values:
   EMIN   =  10.00;   EMAX   =-10.00  energy-range for DOS
   EFERMI =   0.00
   ISMEAR =     0;   SIGMA  =   0.01  broadening in eV -4-tet -1-fermi 0-gaus

 Electronic relaxation 2 (details)
   IALGO  =     58    algorithm
   LDIAG  =      T    sub-space diagonalisation (order eigenvalues)
   LSUBROT=      F    optimize rotation matrix (better conditioning)
   TURBO    =      0    0=normal 1=particle mesh
   IRESTART =      0    0=no restart 2=restart with 2 vectors
   NREBOOT  =      0    no. of reboots
   NMIN     =      0    reboot dimension
   EREF     =   0.00    reference energy to select bands
   IMIX   =      4    mixing-type and parameters
     AMIX     =   0.40;   BMIX     =  1.00
     AMIX_MAG =   1.60;   BMIX_MAG =  1.00
     AMIN     =   0.10
     WC   =   100.;   INIMIX=   1;  MIXPRE=   1;  MAXMIX= -45

 Intra band minimization:
   WEIMIN = 0.0000     energy-eigenvalue tresh-hold
   EBREAK =  0.26E-09  absolut break condition
   DEPER  =   0.30     relativ break condition  

   TIME   =   0.40     timestep for ELM

  volume/ion in A,a.u.               =      27.53       185.77
  Fermi-wavevector in a.u.,A,eV,Ry     =   1.168098  2.207386 18.564519  1.364454
  Thomas-Fermi vector in A             =   2.304590

 Write flags
   LWAVE        =      F    write WAVECAR
   LDOWNSAMPLE  =      F    k-point downsampling of WAVECAR
   LCHARG       =      F    write CHGCAR
   LVTOT        =      F    write LOCPOT, total local potential
   LVHAR        =      F    write LOCPOT, Hartree potential only
   LELF         =      F    write electronic localiz. function (ELF)
   LORBIT       =      0    0 simple, 1 ext, 2 COOP (PROOUT), +10 PAW based schemes


 Dipole corrections
   LMONO  =      F    monopole corrections only (constant potential shift)
   LDIPOL =      F    correct potential (dipole corrections)
   IDIPOL =      0    1-x, 2-y, 3-z, 4-all directions 
   EPSILON=  1.0000000 bulk dielectric constant

 Exchange correlation treatment:
   GGA     =    --    GGA type
   LEXCH   =     8    internal setting for exchange type
   VOSKOWN=      0    Vosko Wilk Nusair interpolation
   LHFCALC =     F    Hartree Fock is set to
   LHFONE  =     F    Hartree Fock one center treatment
   AEXX    =    0.0000 exact exchange contribution

 Linear response parameters
   LEPSILON=     F    determine dielectric tensor
   LRPA    =     F    only Hartree local field effects (RPA)
   LNABLA  =     F    use nabla operator in PAW spheres
   LVEL    =     F    velocity operator in full k-point grid
   LINTERFAST=   F  fast interpolation
   KINTER  =     0    interpolate to denser k-point grid
   CSHIFT  =0.1000    complex shift for real part using Kramers Kronig
   OMEGAMAX=  -1.0    maximum frequency
   DEG_THRESHOLD= 0.2000000E-02 threshold for treating states as degnerate
   RTIME   =   -0.100 relaxation time in fs
  (WPLASMAI=    0.000 imaginary part of plasma frequency in eV, 0.658/RTIME)
   DFIELD  = 0.0000000 0.0000000 0.0000000 field for delta impulse in time

 Orbital magnetization related:
   ORBITALMAG=     F  switch on orbital magnetization
   LCHIMAG   =     F  perturbation theory with respect to B field
   DQ        =  0.001000  dq finite difference perturbation B field
   LLRAUG    =     F  two centre corrections for induced B field



--------------------------------------------------------------------------------------------------------


 Static calculation
 charge density and potential remain constant during run
 non-spin polarized calculation
 Conjugate gradient for all bands (Freysoldt, et al. PRB 79, 241103 (2009))
 preconditioned conjugated gradient   charged. constant during bandupdate  
 perform sub-space diagonalisation
    before iterative eigenvector-optimisation
 no mixing
 using additional bands           56
 reciprocal scheme for non local part
 use partial core corrections
 calculate Harris-corrections to forces   (improved forces if not selfconsistent)
 use gradient corrections 
 WARNING: stress and forces are not correct
  (second derivative of E(xc) not defined)
 use of overlap-Matrix (Vanderbilt PP)
 Gauss-broadening in eV      SIGMA  =   0.01


--------------------------------------------------------------------------------------------------------


  energy-cutoff  :      600.00
  volume of cell :      220.23
      direct lattice vectors                 reciprocal lattice vectors
     4.172141830  0.000000000  0.000000000     0.239685044  0.000000000  0.000000000
     0.000000000  4.555208070  0.000000000     0.000000000  0.219528940  0.000000000
     0.000000000  0.000000000 11.588013930     0.000000000  0.000000000  0.086296065

  length of vectors
     4.172141830  4.555208070 11.588013930     0.239685044  0.219528940  0.086296065



 k-points in units of 2pi/SCALE and weight: Non SCF run along symmetry lines        
   0.00000000  0.00000000  0.00000000       0.004
   0.00521054  0.00000000  0.00000000       0.004
   0.01042109  0.00000000  0.00000000       0.004
   0.01563163  0.00000000  0.00000000       0.004
   0.02084218  0.00000000  0.00000000       0.004
   0.02605272  0.00000000  0.00000000       0.004
   0.03126327  0.00000000  0.00000000       0.004
   0.03647381 -0.00000000  0.00000000       0.004
   0.04168436  0.00000000  0.00000000       0.004
   0.04689490  0.00000000  0.00000000       0.004
   0.05210544  0.00000000  0.00000000       0.004
   0.05731599  0.00000000  0.00000000       0.004
   0.06252653  0.00000000  0.00000000       0.004
   0.06773708 -0.00000000  0.00000000       0.004
   0.07294762 -0.00000000  0.00000000       0.004
   0.07815817  0.00000000  0.00000000       0.004
   0.08336871  0.00000000  0.00000000       0.004
   0.08857926 -0.00000000  0.00000000       0.004
   0.09378980  0.00000000  0.00000000       0.004
   0.09900034 -0.00000000  0.00000000       0.004
   0.10421089  0.00000000  0.00000000       0.004
   0.10942143 -0.00000000  0.00000000       0.004
   0.11463198  0.00000000  0.00000000       0.004
   0.11984252  0.00000000  0.00000000       0.004
   0.11984252  0.00000000  0.00000000       0.004
   0.11984252  0.00522688  0.00000000       0.004
   0.11984252  0.01045376  0.00000000       0.004
   0.11984252  0.01568064  0.00000000       0.004
   0.11984252  0.02090752  0.00000000       0.004
   0.11984252  0.02613440  0.00000000       0.004
   0.11984252  0.03136128  0.00000000       0.004
   0.11984252  0.03658816  0.00000000       0.004
   0.11984252  0.04181504  0.00000000       0.004
   0.11984252  0.04704192  0.00000000       0.004
   0.11984252  0.05226880  0.00000000       0.004
   0.11984252  0.05749567  0.00000000       0.004
   0.11984252  0.06272255  0.00000000       0.004
   0.11984252  0.06794943  0.00000000       0.004
   0.11984252  0.07317631  0.00000000       0.004
   0.11984252  0.07840319  0.00000000       0.004
   0.11984252  0.08363007  0.00000000       0.004
   0.11984252  0.08885695  0.00000000       0.004
   0.11984252  0.09408383  0.00000000       0.004
   0.11984252  0.09931071  0.00000000       0.004
   0.11984252  0.10453759  0.00000000       0.004
   0.11984252  0.10976447  0.00000000       0.004
   0.11984252  0.10976447  0.00000000       0.004
   0.11463198  0.10976447  0.00000000       0.004
   0.10942143  0.10976447  0.00000000       0.004
   0.10421089  0.10976447  0.00000000       0.004
   0.09900034  0.10976447  0.00000000       0.004
   0.09378980  0.10976447  0.00000000       0.004
   0.08857926  0.10976447  0.00000000       0.004
   0.08336871  0.10976447  0.00000000       0.004
   0.07815817  0.10976447  0.00000000       0.004
   0.07294762  0.10976447  0.00000000       0.004
   0.06773708  0.10976447  0.00000000       0.004
   0.06252653  0.10976447  0.00000000       0.004
   0.05731599  0.10976447  0.00000000       0.004
   0.05210544  0.10976447  0.00000000       0.004
   0.04689490  0.10976447  0.00000000       0.004
   0.04168436  0.10976447  0.00000000       0.004
   0.03647381  0.10976447  0.00000000       0.004
   0.03126327  0.10976447  0.00000000       0.004
   0.02605272  0.10976447  0.00000000       0.004
   0.02084218  0.10976447  0.00000000       0.004
   0.01563163  0.10976447  0.00000000       0.004
   0.01042109  0.10976447  0.00000000       0.004
   0.00521054  0.10976447  0.00000000       0.004
   0.00000000  0.10976447  0.00000000       0.004
   0.00000000  0.10976447  0.00000000       0.004
   0.00000000  0.10453759  0.00000000       0.004
   0.00000000  0.09931071  0.00000000       0.004
   0.00000000  0.09408383  0.00000000       0.004
   0.00000000  0.08885695  0.00000000       0.004
   0.00000000  0.08363007  0.00000000       0.004
   0.00000000  0.07840319  0.00000000       0.004
   0.00000000  0.07317631  0.00000000       0.004
   0.00000000  0.06794943  0.00000000       0.004
   0.00000000  0.06272255  0.00000000       0.004
   0.00000000  0.05749567  0.00000000       0.004
   0.00000000  0.05226880  0.00000000       0.004
   0.00000000  0.04704192  0.00000000       0.004
   0.00000000  0.04181504  0.00000000       0.004
   0.00000000  0.03658816  0.00000000       0.004
   0.00000000  0.03136128  0.00000000       0.004
   0.00000000  0.02613440  0.00000000       0.004
   0.00000000  0.02090752  0.00000000       0.004
   0.00000000  0.01568064  0.00000000       0.004
   0.00000000  0.01045376  0.00000000       0.004
   0.00000000  0.00522688  0.00000000       0.004
   0.00000000  0.00000000  0.00000000       0.004
   0.00000000  0.00000000  0.00000000       0.004
  -0.00000000 -0.00000000  0.00479423       0.004
  -0.00000000 -0.00000000  0.00958845       0.004
  -0.00000000  0.00000000  0.01438268       0.004
  -0.00000000 -0.00000000  0.01917690       0.004
  -0.00000000  0.00000000  0.02397113       0.004
  -0.00000000  0.00000000  0.02876535       0.004
   0.00000000  0.00000000  0.03355958       0.004
  -0.00000000 -0.00000000  0.03835381       0.004
  -0.00000000  0.00000000  0.04314803       0.004
  -0.00000000  0.00000000  0.04314803       0.004
   0.00521054 -0.00000000  0.04314803       0.004
   0.01042109 -0.00000000  0.04314803       0.004
   0.01563163 -0.00000000  0.04314803       0.004
   0.02084218 -0.00000000  0.04314803       0.004
   0.02605272  0.00000000  0.04314803       0.004
   0.03126327  0.00000000  0.04314803       0.004
   0.03647381 -0.00000000  0.04314803       0.004
   0.04168436 -0.00000000  0.04314803       0.004
   0.04689490  0.00000000  0.04314803       0.004
   0.05210544 -0.00000000  0.04314803       0.004
   0.05731599  0.00000000  0.04314803       0.004
   0.06252653  0.00000000  0.04314803       0.004
   0.06773708 -0.00000000  0.04314803       0.004
   0.07294762 -0.00000000  0.04314803       0.004
   0.07815817  0.00000000  0.04314803       0.004
   0.08336871 -0.00000000  0.04314803       0.004
   0.08857926 -0.00000000  0.04314803       0.004
   0.09378980  0.00000000  0.04314803       0.004
   0.09900034 -0.00000000  0.04314803       0.004
   0.10421089  0.00000000  0.04314803       0.004
   0.10942143 -0.00000000  0.04314803       0.004
   0.11463198  0.00000000  0.04314803       0.004
   0.11984252  0.00000000  0.04314803       0.004
   0.11984252  0.00000000  0.04314803       0.004
   0.11984252  0.00522688  0.04314803       0.004
   0.11984252  0.01045376  0.04314803       0.004
   0.11984252  0.01568064  0.04314803       0.004
   0.11984252  0.02090752  0.04314803       0.004
   0.11984252  0.02613440  0.04314803       0.004
   0.11984252  0.03136128  0.04314803       0.004
   0.11984252  0.03658816  0.04314803       0.004
   0.11984252  0.04181504  0.04314803       0.004
   0.11984252  0.04704192  0.04314803       0.004
   0.11984252  0.05226880  0.04314803       0.004
   0.11984252  0.05749567  0.04314803       0.004
   0.11984252  0.06272255  0.04314803       0.004
   0.11984252  0.06794943  0.04314803       0.004
   0.11984252  0.07317631  0.04314803       0.004
   0.11984252  0.07840319  0.04314803       0.004
   0.11984252  0.08363007  0.04314803       0.004
   0.11984252  0.08885695  0.04314803       0.004
   0.11984252  0.09408383  0.04314803       0.004
   0.11984252  0.09931071  0.04314803       0.004
   0.11984252  0.10453759  0.04314803       0.004
   0.11984252  0.10976447  0.04314803       0.004
   0.11984252  0.10976447  0.04314803       0.004
   0.11463198  0.10976447  0.04314803       0.004
   0.10942143  0.10976447  0.04314803       0.004
   0.10421089  0.10976447  0.04314803       0.004
   0.09900034  0.10976447  0.04314803       0.004
   0.09378980  0.10976447  0.04314803       0.004
   0.08857926  0.10976447  0.04314803       0.004
   0.08336871  0.10976447  0.04314803       0.004
   0.07815817  0.10976447  0.04314803       0.004
   0.07294762  0.10976447  0.04314803       0.004
   0.06773708  0.10976447  0.04314803       0.004
   0.06252653  0.10976447  0.04314803       0.004
   0.05731599  0.10976447  0.04314803       0.004
   0.05210544  0.10976447  0.04314803       0.004
   0.04689490  0.10976447  0.04314803       0.004
   0.04168436  0.10976447  0.04314803       0.004
   0.03647381  0.10976447  0.04314803       0.004
   0.03126327  0.10976447  0.04314803       0.004
   0.02605272  0.10976447  0.04314803       0.004
   0.02084218  0.10976447  0.04314803       0.004
   0.01563163  0.10976447  0.04314803       0.004
   0.01042109  0.10976447  0.04314803       0.004
   0.00521054  0.10976447  0.04314803       0.004
   0.00000000  0.10976447  0.04314803       0.004
  -0.00000000  0.10976447  0.04314803       0.004
  -0.00000000  0.10453759  0.04314803       0.004
  -0.00000000  0.09931071  0.04314803       0.004
  -0.00000000  0.09408383  0.04314803       0.004
  -0.00000000  0.08885695  0.04314803       0.004
  -0.00000000  0.08363007  0.04314803       0.004
  -0.00000000  0.07840319  0.04314803       0.004
  -0.00000000  0.07317631  0.04314803       0.004
  -0.00000000  0.06794943  0.04314803       0.004
  -0.00000000  0.06272255  0.04314803       0.004
  -0.00000000  0.05749567  0.04314803       0.004
  -0.00000000  0.05226880  0.04314803       0.004
  -0.00000000  0.04704192  0.04314803       0.004
  -0.00000000  0.04181504  0.04314803       0.004
  -0.00000000  0.03658816  0.04314803       0.004
  -0.00000000  0.03136128  0.04314803       0.004
  -0.00000000  0.02613440  0.04314803       0.004
  -0.00000000  0.02090752  0.04314803       0.004
  -0.00000000  0.01568064  0.04314803       0.004
  -0.00000000  0.01045376  0.04314803       0.004
  -0.00000000  0.00522688  0.04314803       0.004
  -0.00000000  0.00000000  0.04314803       0.004
   0.00000000  0.10976447  0.00000000       0.004
  -0.00000000  0.10976447  0.00479423       0.004
  -0.00000000  0.10976447  0.00958845       0.004
  -0.00000000  0.10976447  0.01438268       0.004
  -0.00000000  0.10976447  0.01917690       0.004
  -0.00000000  0.10976447  0.02397113       0.004
  -0.00000000  0.10976447  0.02876535       0.004
   0.00000000  0.10976447  0.03355958       0.004
  -0.00000000  0.10976447  0.03835381       0.004
  -0.00000000  0.10976447  0.04314803       0.004
   0.11984252  0.00000000  0.04314803       0.004
   0.11984252  0.00000000  0.03835381       0.004
   0.11984252  0.00000000  0.03355958       0.004
   0.11984252  0.00000000  0.02876535       0.004
   0.11984252  0.00000000  0.02397113       0.004
   0.11984252  0.00000000  0.01917690       0.004
   0.11984252  0.00000000  0.01438268       0.004
   0.11984252  0.00000000  0.00958845       0.004
   0.11984252  0.00000000  0.00479423       0.004
   0.11984252  0.00000000  0.00000000       0.004
   0.11984252  0.10976447  0.00000000       0.004
   0.11984252  0.10976447  0.00479423       0.004
   0.11984252  0.10976447  0.00958845       0.004
   0.11984252  0.10976447  0.01438268       0.004
   0.11984252  0.10976447  0.01917690       0.004
   0.11984252  0.10976447  0.02397113       0.004
   0.11984252  0.10976447  0.02876535       0.004
   0.11984252  0.10976447  0.03355958       0.004
   0.11984252  0.10976447  0.03835381       0.004
   0.11984252  0.10976447  0.04314803       0.004

 k-points in reciprocal lattice and weights: Non SCF run along symmetry lines        
   0.00000000  0.00000000  0.00000000       0.004
   0.02173913  0.00000000  0.00000000       0.004
   0.04347826  0.00000000  0.00000000       0.004
   0.06521739  0.00000000  0.00000000       0.004
   0.08695652  0.00000000  0.00000000       0.004
   0.10869565  0.00000000  0.00000000       0.004
   0.13043478  0.00000000  0.00000000       0.004
   0.15217391 -0.00000000  0.00000000       0.004
   0.17391304  0.00000000  0.00000000       0.004
   0.19565217  0.00000000  0.00000000       0.004
   0.21739130  0.00000000  0.00000000       0.004
   0.23913043  0.00000000  0.00000000       0.004
   0.26086957  0.00000000  0.00000000       0.004
   0.28260870 -0.00000000  0.00000000       0.004
   0.30434783 -0.00000000  0.00000000       0.004
   0.32608696  0.00000000  0.00000000       0.004
   0.34782609  0.00000000  0.00000000       0.004
   0.36956522 -0.00000000  0.00000000       0.004
   0.39130435  0.00000000  0.00000000       0.004
   0.41304348 -0.00000000  0.00000000       0.004
   0.43478261  0.00000000  0.00000000       0.004
   0.45652174 -0.00000000  0.00000000       0.004
   0.47826087  0.00000000  0.00000000       0.004
   0.50000000  0.00000000  0.00000000       0.004
   0.50000000  0.00000000  0.00000000       0.004
   0.50000000  0.02380952  0.00000000       0.004
   0.50000000  0.04761905  0.00000000       0.004
   0.50000000  0.07142857  0.00000000       0.004
   0.50000000  0.09523810  0.00000000       0.004
   0.50000000  0.11904762  0.00000000       0.004
   0.50000000  0.14285714  0.00000000       0.004
   0.50000000  0.16666667  0.00000000       0.004
   0.50000000  0.19047619  0.00000000       0.004
   0.50000000  0.21428571  0.00000000       0.004
   0.50000000  0.23809524  0.00000000       0.004
   0.50000000  0.26190476  0.00000000       0.004
   0.50000000  0.28571429  0.00000000       0.004
   0.50000000  0.30952381  0.00000000       0.004
   0.50000000  0.33333333  0.00000000       0.004
   0.50000000  0.35714286  0.00000000       0.004
   0.50000000  0.38095238  0.00000000       0.004
   0.50000000  0.40476190  0.00000000       0.004
   0.50000000  0.42857143  0.00000000       0.004
   0.50000000  0.45238095  0.00000000       0.004
   0.50000000  0.47619048  0.00000000       0.004
   0.50000000  0.50000000  0.00000000       0.004
   0.50000000  0.50000000  0.00000000       0.004
   0.47826087  0.50000000  0.00000000       0.004
   0.45652174  0.50000000  0.00000000       0.004
   0.43478261  0.50000000  0.00000000       0.004
   0.41304348  0.50000000  0.00000000       0.004
   0.39130435  0.50000000  0.00000000       0.004
   0.36956522  0.50000000  0.00000000       0.004
   0.34782609  0.50000000  0.00000000       0.004
   0.32608696  0.50000000  0.00000000       0.004
   0.30434783  0.50000000  0.00000000       0.004
   0.28260870  0.50000000  0.00000000       0.004
   0.26086957  0.50000000  0.00000000       0.004
   0.23913043  0.50000000  0.00000000       0.004
   0.21739130  0.50000000  0.00000000       0.004
   0.19565217  0.50000000  0.00000000       0.004
   0.17391304  0.50000000  0.00000000       0.004
   0.15217391  0.50000000  0.00000000       0.004
   0.13043478  0.50000000  0.00000000       0.004
   0.10869565  0.50000000  0.00000000       0.004
   0.08695652  0.50000000  0.00000000       0.004
   0.06521739  0.50000000  0.00000000       0.004
   0.04347826  0.50000000  0.00000000       0.004
   0.02173913  0.50000000  0.00000000       0.004
   0.00000000  0.50000000  0.00000000       0.004
   0.00000000  0.50000000  0.00000000       0.004
   0.00000000  0.47619048  0.00000000       0.004
   0.00000000  0.45238095  0.00000000       0.004
   0.00000000  0.42857143  0.00000000       0.004
   0.00000000  0.40476190  0.00000000       0.004
   0.00000000  0.38095238  0.00000000       0.004
   0.00000000  0.35714286  0.00000000       0.004
   0.00000000  0.33333333  0.00000000       0.004
   0.00000000  0.30952381  0.00000000       0.004
   0.00000000  0.28571429  0.00000000       0.004
   0.00000000  0.26190476  0.00000000       0.004
   0.00000000  0.23809524  0.00000000       0.004
   0.00000000  0.21428571  0.00000000       0.004
   0.00000000  0.19047619  0.00000000       0.004
   0.00000000  0.16666667  0.00000000       0.004
   0.00000000  0.14285714  0.00000000       0.004
   0.00000000  0.11904762  0.00000000       0.004
   0.00000000  0.09523810  0.00000000       0.004
   0.00000000  0.07142857  0.00000000       0.004
   0.00000000  0.04761905  0.00000000       0.004
   0.00000000  0.02380952  0.00000000       0.004
   0.00000000  0.00000000  0.00000000       0.004
   0.00000000  0.00000000  0.00000000       0.004
  -0.00000000 -0.00000000  0.05555556       0.004
  -0.00000000 -0.00000000  0.11111111       0.004
  -0.00000000  0.00000000  0.16666667       0.004
  -0.00000000 -0.00000000  0.22222222       0.004
  -0.00000000  0.00000000  0.27777778       0.004
  -0.00000000  0.00000000  0.33333333       0.004
   0.00000000  0.00000000  0.38888889       0.004
  -0.00000000 -0.00000000  0.44444444       0.004
  -0.00000000  0.00000000  0.50000000       0.004
  -0.00000000  0.00000000  0.50000000       0.004
   0.02173913 -0.00000000  0.50000000       0.004
   0.04347826 -0.00000000  0.50000000       0.004
   0.06521739 -0.00000000  0.50000000       0.004
   0.08695652 -0.00000000  0.50000000       0.004
   0.10869565  0.00000000  0.50000000       0.004
   0.13043478  0.00000000  0.50000000       0.004
   0.15217391 -0.00000000  0.50000000       0.004
   0.17391304 -0.00000000  0.50000000       0.004
   0.19565217  0.00000000  0.50000000       0.004
   0.21739130 -0.00000000  0.50000000       0.004
   0.23913043  0.00000000  0.50000000       0.004
   0.26086957  0.00000000  0.50000000       0.004
   0.28260870 -0.00000000  0.50000000       0.004
   0.30434783 -0.00000000  0.50000000       0.004
   0.32608696  0.00000000  0.50000000       0.004
   0.34782609 -0.00000000  0.50000000       0.004
   0.36956522 -0.00000000  0.50000000       0.004
   0.39130435  0.00000000  0.50000000       0.004
   0.41304348 -0.00000000  0.50000000       0.004
   0.43478261  0.00000000  0.50000000       0.004
   0.45652174 -0.00000000  0.50000000       0.004
   0.47826087  0.00000000  0.50000000       0.004
   0.50000000  0.00000000  0.50000000       0.004
   0.50000000  0.00000000  0.50000000       0.004
   0.50000000  0.02380952  0.50000000       0.004
   0.50000000  0.04761905  0.50000000       0.004
   0.50000000  0.07142857  0.50000000       0.004
   0.50000000  0.09523810  0.50000000       0.004
   0.50000000  0.11904762  0.50000000       0.004
   0.50000000  0.14285714  0.50000000       0.004
   0.50000000  0.16666667  0.50000000       0.004
   0.50000000  0.19047619  0.50000000       0.004
   0.50000000  0.21428571  0.50000000       0.004
   0.50000000  0.23809524  0.50000000       0.004
   0.50000000  0.26190476  0.50000000       0.004
   0.50000000  0.28571429  0.50000000       0.004
   0.50000000  0.30952381  0.50000000       0.004
   0.50000000  0.33333333  0.50000000       0.004
   0.50000000  0.35714286  0.50000000       0.004
   0.50000000  0.38095238  0.50000000       0.004
   0.50000000  0.40476190  0.50000000       0.004
   0.50000000  0.42857143  0.50000000       0.004
   0.50000000  0.45238095  0.50000000       0.004
   0.50000000  0.47619048  0.50000000       0.004
   0.50000000  0.50000000  0.50000000       0.004
   0.50000000  0.50000000  0.50000000       0.004
   0.47826087  0.50000000  0.50000000       0.004
   0.45652174  0.50000000  0.50000000       0.004
   0.43478261  0.50000000  0.50000000       0.004
   0.41304348  0.50000000  0.50000000       0.004
   0.39130435  0.50000000  0.50000000       0.004
   0.36956522  0.50000000  0.50000000       0.004
   0.34782609  0.50000000  0.50000000       0.004
   0.32608696  0.50000000  0.50000000       0.004
   0.30434783  0.50000000  0.50000000       0.004
   0.28260870  0.50000000  0.50000000       0.004
   0.26086957  0.50000000  0.50000000       0.004
   0.23913043  0.50000000  0.50000000       0.004
   0.21739130  0.50000000  0.50000000       0.004
   0.19565217  0.50000000  0.50000000       0.004
   0.17391304  0.50000000  0.50000000       0.004
   0.15217391  0.50000000  0.50000000       0.004
   0.13043478  0.50000000  0.50000000       0.004
   0.10869565  0.50000000  0.50000000       0.004
   0.08695652  0.50000000  0.50000000       0.004
   0.06521739  0.50000000  0.50000000       0.004
   0.04347826  0.50000000  0.50000000       0.004
   0.02173913  0.50000000  0.50000000       0.004
   0.00000000  0.50000000  0.50000000       0.004
  -0.00000000  0.50000000  0.50000000       0.004
  -0.00000000  0.47619048  0.50000000       0.004
  -0.00000000  0.45238095  0.50000000       0.004
  -0.00000000  0.42857143  0.50000000       0.004
  -0.00000000  0.40476190  0.50000000       0.004
  -0.00000000  0.38095238  0.50000000       0.004
  -0.00000000  0.35714286  0.50000000       0.004
  -0.00000000  0.33333333  0.50000000       0.004
  -0.00000000  0.30952381  0.50000000       0.004
  -0.00000000  0.28571429  0.50000000       0.004
  -0.00000000  0.26190476  0.50000000       0.004
  -0.00000000  0.23809524  0.50000000       0.004
  -0.00000000  0.21428571  0.50000000       0.004
  -0.00000000  0.19047619  0.50000000       0.004
  -0.00000000  0.16666667  0.50000000       0.004
  -0.00000000  0.14285714  0.50000000       0.004
  -0.00000000  0.11904762  0.50000000       0.004
  -0.00000000  0.09523810  0.50000000       0.004
  -0.00000000  0.07142857  0.50000000       0.004
  -0.00000000  0.04761905  0.50000000       0.004
  -0.00000000  0.02380952  0.50000000       0.004
  -0.00000000  0.00000000  0.50000000       0.004
   0.00000000  0.50000000  0.00000000       0.004
  -0.00000000  0.50000000  0.05555556       0.004
  -0.00000000  0.50000000  0.11111111       0.004
  -0.00000000  0.50000000  0.16666667       0.004
  -0.00000000  0.50000000  0.22222222       0.004
  -0.00000000  0.50000000  0.27777778       0.004
  -0.00000000  0.50000000  0.33333333       0.004
   0.00000000  0.50000000  0.38888889       0.004
  -0.00000000  0.50000000  0.44444444       0.004
  -0.00000000  0.50000000  0.50000000       0.004
   0.50000000  0.00000000  0.50000000       0.004
   0.50000000  0.00000000  0.44444444       0.004
   0.50000000  0.00000000  0.38888889       0.004
   0.50000000  0.00000000  0.33333333       0.004
   0.50000000  0.00000000  0.27777778       0.004
   0.50000000  0.00000000  0.22222222       0.004
   0.50000000  0.00000000  0.16666667       0.004
   0.50000000  0.00000000  0.11111111       0.004
   0.50000000  0.00000000  0.05555556       0.004
   0.50000000  0.00000000  0.00000000       0.004
   0.50000000  0.50000000  0.00000000       0.004
   0.50000000  0.50000000  0.05555556       0.004
   0.50000000  0.50000000  0.11111111       0.004
   0.50000000  0.50000000  0.16666667       0.004
   0.50000000  0.50000000  0.22222222       0.004
   0.50000000  0.50000000  0.27777778       0.004
   0.50000000  0.50000000  0.33333333       0.004
   0.50000000  0.50000000  0.38888889       0.004
   0.50000000  0.50000000  0.44444444       0.004
   0.50000000  0.50000000  0.50000000       0.004

 position of ions in fractional coordinates (direct lattice) 
   0.25000000  0.11313331  0.11695741
   0.75000000  0.88686669  0.88304259
   0.75000000  0.61313331  0.38304259
   0.25000000  0.38686669  0.61695741
   0.75000000  0.51830297  0.14525948
   0.25000000  0.48169703  0.85474052
   0.25000000  0.01830297  0.35474052
   0.75000000  0.98169703  0.64525948

 position of ions in cartesian coordinates  (Angst):
   1.04303546  0.51534577  1.35530410
   3.12910637  4.03986230 10.23270983
   3.12910637  2.79294980  4.43870287
   1.04303546  1.76225827  7.14931106
   3.12910637  2.36097787  1.68326888
   1.04303546  2.19423020  9.90474505
   1.04303546  0.08337384  4.11073809
   3.12910637  4.47183423  7.47727584



--------------------------------------------------------------------------------------------------------


 k-point  1 :   0.0000 0.0000 0.0000  plane waves:    7345
 k-point  2 :   0.0217 0.0000 0.0000  plane waves:    7355
 k-point  3 :   0.0435 0.0000 0.0000  plane waves:    7351
 k-point  4 :   0.0652 0.0000 0.0000  plane waves:    7355
 k-point  5 :   0.0870 0.0000 0.0000  plane waves:    7357
 k-point  6 :   0.1087 0.0000 0.0000  plane waves:    7355
 k-point  7 :   0.1304 0.0000 0.0000  plane waves:    7355
 k-point  8 :   0.1522-0.0000 0.0000  plane waves:    7367
 k-point  9 :   0.1739 0.0000 0.0000  plane waves:    7335
 k-point 10 :   0.1957 0.0000 0.0000  plane waves:    7339
 k-point 11 :   0.2174 0.0000 0.0000  plane waves:    7341
 k-point 12 :   0.2391 0.0000 0.0000  plane waves:    7341
 k-point 13 :   0.2609 0.0000 0.0000  plane waves:    7339
 k-point 14 :   0.2826-0.0000 0.0000  plane waves:    7349
 k-point 15 :   0.3043-0.0000 0.0000  plane waves:    7343
 k-point 16 :   0.3261 0.0000 0.0000  plane waves:    7325
 k-point 17 :   0.3478 0.0000 0.0000  plane waves:    7318
 k-point 18 :   0.3696-0.0000 0.0000  plane waves:    7308
 k-point 19 :   0.3913 0.0000 0.0000  plane waves:    7308
 k-point 20 :   0.4130-0.0000 0.0000  plane waves:    7302
 k-point 21 :   0.4348 0.0000 0.0000  plane waves:    7310
 k-point 22 :   0.4565-0.0000 0.0000  plane waves:    7318
 k-point 23 :   0.4783 0.0000 0.0000  plane waves:    7314
 k-point 24 :   0.5000 0.0000 0.0000  plane waves:    7312
 k-point 25 :   0.5000 0.0000 0.0000  plane waves:    7312
 k-point 26 :   0.5000 0.0238 0.0000  plane waves:    7316
 k-point 27 :   0.5000 0.0476 0.0000  plane waves:    7302
 k-point 28 :   0.5000 0.0714 0.0000  plane waves:    7312
 k-point 29 :   0.5000 0.0952 0.0000  plane waves:    7322
 k-point 30 :   0.5000 0.1190 0.0000  plane waves:    7322
 k-point 31 :   0.5000 0.1429 0.0000  plane waves:    7330
 k-point 32 :   0.5000 0.1667 0.0000  plane waves:    7332
 k-point 33 :   0.5000 0.1905 0.0000  plane waves:    7320
 k-point 34 :   0.5000 0.2143 0.0000  plane waves:    7332
 k-point 35 :   0.5000 0.2381 0.0000  plane waves:    7344
 k-point 36 :   0.5000 0.2619 0.0000  plane waves:    7338
 k-point 37 :   0.5000 0.2857 0.0000  plane waves:    7346
 k-point 38 :   0.5000 0.3095 0.0000  plane waves:    7356
 k-point 39 :   0.5000 0.3333 0.0000  plane waves:    7374
 k-point 40 :   0.5000 0.3571 0.0000  plane waves:    7376
 k-point 41 :   0.5000 0.3810 0.0000  plane waves:    7372
 k-point 42 :   0.5000 0.4048 0.0000  plane waves:    7380
 k-point 43 :   0.5000 0.4286 0.0000  plane waves:    7372
 k-point 44 :   0.5000 0.4524 0.0000  plane waves:    7380
 k-point 45 :   0.5000 0.4762 0.0000  plane waves:    7376
 k-point 46 :   0.5000 0.5000 0.0000  plane waves:    7392
 k-point 47 :   0.5000 0.5000 0.0000  plane waves:    7392
 k-point 48 :   0.4783 0.5000 0.0000  plane waves:    7392
 k-point 49 :   0.4565 0.5000 0.0000  plane waves:    7412
 k-point 50 :   0.4348 0.5000 0.0000  plane waves:    7388
 k-point 51 :   0.4130 0.5000 0.0000  plane waves:    7372
 k-point 52 :   0.3913 0.5000 0.0000  plane waves:    7356
 k-point 53 :   0.3696 0.5000 0.0000  plane waves:    7364
 k-point 54 :   0.3478 0.5000 0.0000  plane waves:    7358
 k-point 55 :   0.3261 0.5000 0.0000  plane waves:    7354
 k-point 56 :   0.3043 0.5000 0.0000  plane waves:    7362
 k-point 57 :   0.2826 0.5000 0.0000  plane waves:    7348
 k-point 58 :   0.2609 0.5000 0.0000  plane waves:    7344
 k-point 59 :   0.2391 0.5000 0.0000  plane waves:    7346
 k-point 60 :   0.2174 0.5000 0.0000  plane waves:    7360
 k-point 61 :   0.1957 0.5000 0.0000  plane waves:    7368
 k-point 62 :   0.1739 0.5000 0.0000  plane waves:    7356
 k-point 63 :   0.1522 0.5000 0.0000  plane waves:    7370
 k-point 64 :   0.1304 0.5000 0.0000  plane waves:    7378
 k-point 65 :   0.1087 0.5000 0.0000  plane waves:    7370
 k-point 66 :   0.0870 0.5000 0.0000  plane waves:    7374
 k-point 67 :   0.0652 0.5000 0.0000  plane waves:    7358
 k-point 68 :   0.0435 0.5000 0.0000  plane waves:    7362
 k-point 69 :   0.0217 0.5000 0.0000  plane waves:    7360
 k-point 70 :   0.0000 0.5000 0.0000  plane waves:    7362
 k-point 71 :   0.0000 0.5000 0.0000  plane waves:    7362
 k-point 72 :   0.0000 0.4762 0.0000  plane waves:    7364
 k-point 73 :   0.0000 0.4524 0.0000  plane waves:    7362
 k-point 74 :   0.0000 0.4286 0.0000  plane waves:    7382
 k-point 75 :   0.0000 0.4048 0.0000  plane waves:    7382
 k-point 76 :   0.0000 0.3810 0.0000  plane waves:    7364
 k-point 77 :   0.0000 0.3571 0.0000  plane waves:    7380
 k-point 78 :   0.0000 0.3333 0.0000  plane waves:    7384
 k-point 79 :   0.0000 0.3095 0.0000  plane waves:    7376
 k-point 80 :   0.0000 0.2857 0.0000  plane waves:    7348
 k-point 81 :   0.0000 0.2619 0.0000  plane waves:    7348
 k-point 82 :   0.0000 0.2381 0.0000  plane waves:    7362
 k-point 83 :   0.0000 0.2143 0.0000  plane waves:    7356
 k-point 84 :   0.0000 0.1905 0.0000  plane waves:    7362
 k-point 85 :   0.0000 0.1667 0.0000  plane waves:    7350
 k-point 86 :   0.0000 0.1429 0.0000  plane waves:    7350
 k-point 87 :   0.0000 0.1190 0.0000  plane waves:    7362
 k-point 88 :   0.0000 0.0952 0.0000  plane waves:    7357
 k-point 89 :   0.0000 0.0714 0.0000  plane waves:    7357
 k-point 90 :   0.0000 0.0476 0.0000  plane waves:    7345
 k-point 91 :   0.0000 0.0238 0.0000  plane waves:    7341
 k-point 92 :   0.0000 0.0000 0.0000  plane waves:    7345
 k-point 93 :   0.0000 0.0000 0.0000  plane waves:    7345
 k-point 94 :  -0.0000-0.0000 0.0556  plane waves:    7347
 k-point 95 :  -0.0000-0.0000 0.1111  plane waves:    7345
 k-point 96 :  -0.0000 0.0000 0.1667  plane waves:    7346
 k-point 97 :  -0.0000-0.0000 0.2222  plane waves:    7350
 k-point 98 :  -0.0000 0.0000 0.2778  plane waves:    7346
 k-point 99 :  -0.0000 0.0000 0.3333  plane waves:    7344
 k-point ** :   0.0000 0.0000 0.3889  plane waves:    7336
 k-point ** :  -0.0000-0.0000 0.4444  plane waves:    7336
 k-point ** :  -0.0000 0.0000 0.5000  plane waves:    7322
 k-point ** :  -0.0000 0.0000 0.5000  plane waves:    7322
 k-point ** :   0.0217-0.0000 0.5000  plane waves:    7344
 k-point ** :   0.0435-0.0000 0.5000  plane waves:    7340
 k-point ** :   0.0652-0.0000 0.5000  plane waves:    7362
 k-point ** :   0.0870-0.0000 0.5000  plane waves:    7352
 k-point ** :   0.1087 0.0000 0.5000  plane waves:    7358
 k-point ** :   0.1304 0.0000 0.5000  plane waves:    7348
 k-point ** :   0.1522-0.0000 0.5000  plane waves:    7354
 k-point ** :   0.1739-0.0000 0.5000  plane waves:    7358
 k-point ** :   0.1957 0.0000 0.5000  plane waves:    7356
 k-point ** :   0.2174-0.0000 0.5000  plane waves:    7340
 k-point ** :   0.2391 0.0000 0.5000  plane waves:    7346
 k-point ** :   0.2609 0.0000 0.5000  plane waves:    7332
 k-point ** :   0.2826-0.0000 0.5000  plane waves:    7328
 k-point ** :   0.3043-0.0000 0.5000  plane waves:    7342
 k-point ** :   0.3261 0.0000 0.5000  plane waves:    7344
 k-point ** :   0.3478-0.0000 0.5000  plane waves:    7350
 k-point ** :   0.3696-0.0000 0.5000  plane waves:    7338
 k-point ** :   0.3913 0.0000 0.5000  plane waves:    7334
 k-point ** :   0.4130-0.0000 0.5000  plane waves:    7332
 k-point ** :   0.4348 0.0000 0.5000  plane waves:    7322
 k-point ** :   0.4565-0.0000 0.5000  plane waves:    7332
 k-point ** :   0.4783 0.0000 0.5000  plane waves:    7328
 k-point ** :   0.5000 0.0000 0.5000  plane waves:    7324
 k-point ** :   0.5000 0.0000 0.5000  plane waves:    7324
 k-point ** :   0.5000 0.0238 0.5000  plane waves:    7324
 k-point ** :   0.5000 0.0476 0.5000  plane waves:    7336
 k-point ** :   0.5000 0.0714 0.5000  plane waves:    7320
 k-point ** :   0.5000 0.0952 0.5000  plane waves:    7328
 k-point ** :   0.5000 0.1190 0.5000  plane waves:    7332
 k-point ** :   0.5000 0.1429 0.5000  plane waves:    7340
 k-point ** :   0.5000 0.1667 0.5000  plane waves:    7332
 k-point ** :   0.5000 0.1905 0.5000  plane waves:    7328
 k-point ** :   0.5000 0.2143 0.5000  plane waves:    7328
 k-point ** :   0.5000 0.2381 0.5000  plane waves:    7328
 k-point ** :   0.5000 0.2619 0.5000  plane waves:    7328
 k-point ** :   0.5000 0.2857 0.5000  plane waves:    7348
 k-point ** :   0.5000 0.3095 0.5000  plane waves:    7336
 k-point ** :   0.5000 0.3333 0.5000  plane waves:    7336
 k-point ** :   0.5000 0.3571 0.5000  plane waves:    7340
 k-point ** :   0.5000 0.3810 0.5000  plane waves:    7348
 k-point ** :   0.5000 0.4048 0.5000  plane waves:    7360
 k-point ** :   0.5000 0.4286 0.5000  plane waves:    7364
 k-point ** :   0.5000 0.4524 0.5000  plane waves:    7360
 k-point ** :   0.5000 0.4762 0.5000  plane waves:    7368
 k-point ** :   0.5000 0.5000 0.5000  plane waves:    7360
 k-point ** :   0.5000 0.5000 0.5000  plane waves:    7360
 k-point ** :   0.4783 0.5000 0.5000  plane waves:    7364
 k-point ** :   0.4565 0.5000 0.5000  plane waves:    7368
 k-point ** :   0.4348 0.5000 0.5000  plane waves:    7376
 k-point ** :   0.4130 0.5000 0.5000  plane waves:    7376
 k-point ** :   0.3913 0.5000 0.5000  plane waves:    7372
 k-point ** :   0.3696 0.5000 0.5000  plane waves:    7356
 k-point ** :   0.3478 0.5000 0.5000  plane waves:    7352
 k-point ** :   0.3261 0.5000 0.5000  plane waves:    7360
 k-point ** :   0.3043 0.5000 0.5000  plane waves:    7332
 k-point ** :   0.2826 0.5000 0.5000  plane waves:    7332
 k-point ** :   0.2609 0.5000 0.5000  plane waves:    7336
 k-point ** :   0.2391 0.5000 0.5000  plane waves:    7340
 k-point ** :   0.2174 0.5000 0.5000  plane waves:    7344
 k-point ** :   0.1957 0.5000 0.5000  plane waves:    7368
 k-point ** :   0.1739 0.5000 0.5000  plane waves:    7364
 k-point ** :   0.1522 0.5000 0.5000  plane waves:    7356
 k-point ** :   0.1304 0.5000 0.5000  plane waves:    7352
 k-point ** :   0.1087 0.5000 0.5000  plane waves:    7332
 k-point ** :   0.0870 0.5000 0.5000  plane waves:    7344
 k-point ** :   0.0652 0.5000 0.5000  plane waves:    7352
 k-point ** :   0.0435 0.5000 0.5000  plane waves:    7368
 k-point ** :   0.0217 0.5000 0.5000  plane waves:    7344
 k-point ** :   0.0000 0.5000 0.5000  plane waves:    7336
 k-point ** :  -0.0000 0.5000 0.5000  plane waves:    7336
 k-point ** :  -0.0000 0.4762 0.5000  plane waves:    7344
 k-point ** :  -0.0000 0.4524 0.5000  plane waves:    7352
 k-point ** :  -0.0000 0.4286 0.5000  plane waves:    7348
 k-point ** :  -0.0000 0.4048 0.5000  plane waves:    7344
 k-point ** :  -0.0000 0.3810 0.5000  plane waves:    7348
 k-point ** :  -0.0000 0.3571 0.5000  plane waves:    7356
 k-point ** :  -0.0000 0.3333 0.5000  plane waves:    7346
 k-point ** :  -0.0000 0.3095 0.5000  plane waves:    7346
 k-point ** :  -0.0000 0.2857 0.5000  plane waves:    7368
 k-point ** :  -0.0000 0.2619 0.5000  plane waves:    7370
 k-point ** :  -0.0000 0.2381 0.5000  plane waves:    7372
 k-point ** :  -0.0000 0.2143 0.5000  plane waves:    7366
 k-point ** :  -0.0000 0.1905 0.5000  plane waves:    7366
 k-point ** :  -0.0000 0.1667 0.5000  plane waves:    7350
 k-point ** :  -0.0000 0.1429 0.5000  plane waves:    7352
 k-point ** :  -0.0000 0.1190 0.5000  plane waves:    7350
 k-point ** :  -0.0000 0.0952 0.5000  plane waves:    7346
 k-point ** :  -0.0000 0.0714 0.5000  plane waves:    7344
 k-point ** :  -0.0000 0.0476 0.5000  plane waves:    7348
 k-point ** :  -0.0000 0.0238 0.5000  plane waves:    7336
 k-point ** :  -0.0000 0.0000 0.5000  plane waves:    7322
 k-point ** :   0.0000 0.5000 0.0000  plane waves:    7362
 k-point ** :  -0.0000 0.5000 0.0556  plane waves:    7366
 k-point ** :  -0.0000 0.5000 0.1111  plane waves:    7366
 k-point ** :  -0.0000 0.5000 0.1667  plane waves:    7364
 k-point ** :  -0.0000 0.5000 0.2222  plane waves:    7364
 k-point ** :  -0.0000 0.5000 0.2778  plane waves:    7344
 k-point ** :  -0.0000 0.5000 0.3333  plane waves:    7336
 k-point ** :   0.0000 0.5000 0.3889  plane waves:    7334
 k-point ** :  -0.0000 0.5000 0.4444  plane waves:    7336
 k-point ** :  -0.0000 0.5000 0.5000  plane waves:    7336
 k-point ** :   0.5000 0.0000 0.5000  plane waves:    7324
 k-point ** :   0.5000 0.0000 0.4444  plane waves:    7332
 k-point ** :   0.5000 0.0000 0.3889  plane waves:    7312
 k-point ** :   0.5000 0.0000 0.3333  plane waves:    7318
 k-point ** :   0.5000 0.0000 0.2778  plane waves:    7322
 k-point ** :   0.5000 0.0000 0.2222  plane waves:    7312
 k-point ** :   0.5000 0.0000 0.1667  plane waves:    7324
 k-point ** :   0.5000 0.0000 0.1111  plane waves:    7316
 k-point ** :   0.5000 0.0000 0.0556  plane waves:    7310
 k-point ** :   0.5000 0.0000 0.0000  plane waves:    7312
 k-point ** :   0.5000 0.5000 0.0000  plane waves:    7392
 k-point ** :   0.5000 0.5000 0.0556  plane waves:    7392
 k-point ** :   0.5000 0.5000 0.1111  plane waves:    7376
 k-point ** :   0.5000 0.5000 0.1667  plane waves:    7372
 k-point ** :   0.5000 0.5000 0.2222  plane waves:    7372
 k-point ** :   0.5000 0.5000 0.2778  plane waves:    7392
 k-point ** :   0.5000 0.5000 0.3333  plane waves:    7380
 k-point ** :   0.5000 0.5000 0.3889  plane waves:    7380
 k-point ** :   0.5000 0.5000 0.4444  plane waves:    7360
 k-point ** :   0.5000 0.5000 0.5000  plane waves:    7360

 maximum and minimum number of plane-waves per node :      3708     3629

 maximum number of plane-waves:      7412
 maximum index in each direction: 
   IXMAX=    8   IYMAX=    9   IZMAX=   23
   IXMIN=   -8   IYMIN=   -9   IZMIN=  -23


 parallel 3D FFT for wavefunctions:
    minimum data exchange during FFTs selected (reduces bandwidth)
 parallel 3D FFT for charge:
    minimum data exchange during FFTs selected (reduces bandwidth)


 total amount of memory used by VASP MPI-rank0  1271404. kBytes
=======================================================================

   base      :      30000. kBytes
   nonl-proj :     239426. kBytes
   fftplans  :      20075. kBytes
   grid      :       9517. kBytes
   one-center:         62. kBytes
   wavefun   :     972324. kBytes

     INWAV:  cpu time    0.0000: real time    0.0001
 initial charge density was supplied:
 number of electron      79.9999998 magnetization 
 keeping initial charge density in first step


--------------------------------------------------------------------------------------------------------


 Maximum index for augmentation-charges        24458 (set IRDMAX)


--------------------------------------------------------------------------------------------------------


 First call to EWALD:  gamma=   0.294
 Maximum number of real-space cells 4x 3x 2
 Maximum number of reciprocal cells 2x 2x 5

    FEWALD:  cpu time    0.0005: real time    0.0006


--------------------------------------- Iteration      1(   1)  ---------------------------------------


    POTLOK:  cpu time    0.0722: real time    0.0727
    SETDIJ:  cpu time    0.0982: real time    0.0987
    TRIAL :  cpu time   56.0968: real time   56.3900
    CORREC:  cpu time    0.0051: real time    0.0051
    --------------------------------------------
      LOOP:  cpu time   56.4666: real time   56.7673

 eigenvalue-minimisations  : 52664
 total energy-change (2. order) : 0.9576368E+03  (-0.3784892E+04)
 number of electron      79.9999998 magnetization 
 augmentation part       79.9999998 magnetization 

 Free energy of the ion-electron system (eV)
  ---------------------------------------------------
  alpha Z        PSCENC =       200.67770252
  Ewald energy   TEWEN  =     -5906.36127324
  -Hartree energ DENC   =     -2405.93000947
  -exchange      EXHF   =         0.00000000
  -V(xc)+E(xc)   XCENC  =       225.00475253
  PAW double counting   =      8367.25946354    -8461.13026213
  entropy T*S    EENTRO =        -0.00016988
  eigenvalues    EBANDS =       337.17178504
  atomic energy  EATOM  =      8600.94477988
  ---------------------------------------------------
  free energy    TOTEN  =       957.63676880 eV

  energy without entropy =      957.63693867  energy(sigma->0) =      957.63685374


--------------------------------------------------------------------------------------------------------




--------------------------------------- Iteration      1(   2)  ---------------------------------------


    TRIAL :  cpu time   49.0074: real time   49.5838
    CORREC:  cpu time    0.0050: real time    0.0050
    --------------------------------------------
      LOOP:  cpu time   49.0125: real time   49.5890

 eigenvalue-minimisations  : 43016
 total energy-change (2. order) :-0.7900178E+03  (-0.6973702E+03)
 number of electron      79.9999998 magnetization 
 augmentation part       79.9999998 magnetization 

 Free energy of the ion-electron system (eV)
  ---------------------------------------------------
  alpha Z        PSCENC =       200.67770252
  Ewald energy   TEWEN  =     -5906.36127324
  -Hartree energ DENC   =     -2405.93000947
  -exchange      EXHF   =         0.00000000
  -V(xc)+E(xc)   XCENC  =       225.00475253
  PAW double counting   =      8367.25946354    -8461.13026213
  entropy T*S    EENTRO =        -0.00014006
  eigenvalues    EBANDS =      -452.84604065
  atomic energy  EATOM  =      8600.94477988
  ---------------------------------------------------
  free energy    TOTEN  =       167.61897291 eV

  energy without entropy =      167.61911298  energy(sigma->0) =      167.61904295


--------------------------------------------------------------------------------------------------------




--------------------------------------- Iteration      1(   3)  ---------------------------------------


    TRIAL :  cpu time   52.4933: real time   53.4350
    CORREC:  cpu time    0.0015: real time    0.0015
    --------------------------------------------
      LOOP:  cpu time   52.4951: real time   53.4367

 eigenvalue-minimisations  : 47544
 total energy-change (2. order) :-0.1864658E+03  (-0.1775961E+03)
 number of electron      79.9999998 magnetization 
 augmentation part       79.9999998 magnetization 

 Free energy of the ion-electron system (eV)
  ---------------------------------------------------
  alpha Z        PSCENC =       200.67770252
  Ewald energy   TEWEN  =     -5906.36127324
  -Hartree energ DENC   =     -2405.93000947
  -exchange      EXHF   =         0.00000000
  -V(xc)+E(xc)   XCENC  =       225.00475253
  PAW double counting   =      8367.25946354    -8461.13026213
  entropy T*S    EENTRO =        -0.00000000
  eigenvalues    EBANDS =      -639.31196752
  atomic energy  EATOM  =      8600.94477988
  ---------------------------------------------------
  free energy    TOTEN  =       -18.84681389 eV

  energy without entropy =      -18.84681389  energy(sigma->0) =      -18.84681389


--------------------------------------------------------------------------------------------------------




--------------------------------------- Iteration      1(   4)  ---------------------------------------


    TRIAL :  cpu time   55.8002: real time   56.1331
    CORREC:  cpu time    0.0016: real time    0.0016
    --------------------------------------------
      LOOP:  cpu time   55.8020: real time   56.1348

 eigenvalue-minimisations  : 51664
 total energy-change (2. order) :-0.1339278E+02  (-0.1327714E+02)
 number of electron      79.9999998 magnetization 
 augmentation part       79.9999998 magnetization 

 Free energy of the ion-electron system (eV)
  ---------------------------------------------------
  alpha Z        PSCENC =       200.67770252
  Ewald energy   TEWEN  =     -5906.36127324
  -Hartree energ DENC   =     -2405.93000947
  -exchange      EXHF   =         0.00000000
  -V(xc)+E(xc)   XCENC  =       225.00475253
  PAW double counting   =      8367.25946354    -8461.13026213
  entropy T*S    EENTRO =        -0.00000000
  eigenvalues    EBANDS =      -652.70474969
  atomic energy  EATOM  =      8600.94477988
  ---------------------------------------------------
  free energy    TOTEN  =       -32.23959606 eV

  energy without entropy =      -32.23959606  energy(sigma->0) =      -32.23959606


--------------------------------------------------------------------------------------------------------




--------------------------------------- Iteration      1(   5)  ---------------------------------------


    TRIAL :  cpu time   56.2161: real time   56.6221
    CORREC:  cpu time    0.0015: real time    0.0015
    --------------------------------------------
      LOOP:  cpu time   56.2177: real time   56.6237

 eigenvalue-minimisations  : 52136
 total energy-change (2. order) :-0.3036965E+00  (-0.3035848E+00)
 number of electron      79.9999998 magnetization 
 augmentation part       79.9999998 magnetization 

 Free energy of the ion-electron system (eV)
  ---------------------------------------------------
  alpha Z        PSCENC =       200.67770252
  Ewald energy   TEWEN  =     -5906.36127324
  -Hartree energ DENC   =     -2405.93000947
  -exchange      EXHF   =         0.00000000
  -V(xc)+E(xc)   XCENC  =       225.00475253
  PAW double counting   =      8367.25946354    -8461.13026213
  entropy T*S    EENTRO =        -0.00000000
  eigenvalues    EBANDS =      -653.00844623
  atomic energy  EATOM  =      8600.94477988
  ---------------------------------------------------
  free energy    TOTEN  =       -32.54329260 eV

  energy without entropy =      -32.54329260  energy(sigma->0) =      -32.54329260


--------------------------------------------------------------------------------------------------------




--------------------------------------- Iteration      1(   6)  ---------------------------------------


    TRIAL :  cpu time   27.4419: real time   27.9166
    CORREC:  cpu time    6.2336: real time    6.5951
    --------------------------------------------
      LOOP:  cpu time   33.6757: real time   34.5119

 eigenvalue-minimisations  :     0
 total energy-change (2. order) :-0.3637979E-10  (-0.7612868E-02)
 number of electron      79.9999998 magnetization 
 augmentation part       79.9999998 magnetization 

 Free energy of the ion-electron system (eV)
  ---------------------------------------------------
  alpha Z        PSCENC =       200.67770252
  Ewald energy   TEWEN  =     -5906.36127324
  -Hartree energ DENC   =     -2405.93000947
  -exchange      EXHF   =         0.00000000
  -V(xc)+E(xc)   XCENC  =       225.00475253
  PAW double counting   =      8367.25946354    -8461.13026213
  entropy T*S    EENTRO =        -0.00000000
  eigenvalues    EBANDS =      -653.00844623
  atomic energy  EATOM  =      8600.94477988
  ---------------------------------------------------
  free energy    TOTEN  =       -32.54329260 eV

  energy without entropy =      -32.54329260  energy(sigma->0) =      -32.54329260


--------------------------------------------------------------------------------------------------------




--------------------------------------- Iteration      1(   7)  ---------------------------------------


    TRIAL :  cpu time   27.2334: real time   27.3308
    CORREC:  cpu time    6.5690: real time    6.8749
    --------------------------------------------
      LOOP:  cpu time   33.8027: real time   34.2059

 eigenvalue-minimisations  :     0
 total energy-change (2. order) :-0.7612864E-02  (-0.2301574E-02)
 number of electron      79.9999998 magnetization 
 augmentation part       79.9999998 magnetization 

 Free energy of the ion-electron system (eV)
  ---------------------------------------------------
  alpha Z        PSCENC =       200.67770252
  Ewald energy   TEWEN  =     -5906.36127324
  -Hartree energ DENC   =     -2405.93000947
  -exchange      EXHF   =         0.00000000
  -V(xc)+E(xc)   XCENC  =       225.00475253
  PAW double counting   =      8367.25946354    -8461.13026213
  entropy T*S    EENTRO =        -0.00000000
  eigenvalues    EBANDS =      -653.01605909
  atomic energy  EATOM  =      8600.94477988
  ---------------------------------------------------
  free energy    TOTEN  =       -32.55090546 eV

  energy without entropy =      -32.55090546  energy(sigma->0) =      -32.55090546


--------------------------------------------------------------------------------------------------------




--------------------------------------- Iteration      1(   8)  ---------------------------------------


    TRIAL :  cpu time   27.2450: real time   27.5006
    CORREC:  cpu time    5.9545: real time    5.9778
    --------------------------------------------
      LOOP:  cpu time   33.2032: real time   33.4821

 eigenvalue-minimisations  :     0
 total energy-change (2. order) :-0.2301532E-02  (-0.7744266E-03)
 number of electron      79.9999998 magnetization 
 augmentation part       79.9999998 magnetization 

 Free energy of the ion-electron system (eV)
  ---------------------------------------------------
  alpha Z        PSCENC =       200.67770252
  Ewald energy   TEWEN  =     -5906.36127324
  -Hartree energ DENC   =     -2405.93000947
  -exchange      EXHF   =         0.00000000
  -V(xc)+E(xc)   XCENC  =       225.00475253
  PAW double counting   =      8367.25946354    -8461.13026213
  entropy T*S    EENTRO =        -0.00000000
  eigenvalues    EBANDS =      -653.01836063
  atomic energy  EATOM  =      8600.94477988
  ---------------------------------------------------
  free energy    TOTEN  =       -32.55320700 eV

  energy without entropy =      -32.55320700  energy(sigma->0) =      -32.55320700


--------------------------------------------------------------------------------------------------------




--------------------------------------- Iteration      1(   9)  ---------------------------------------


    TRIAL :  cpu time   27.2980: real time   27.6183
    CORREC:  cpu time    5.9705: real time    5.9863
    --------------------------------------------
      LOOP:  cpu time   33.2687: real time   33.6047

 eigenvalue-minimisations  :     0
 total energy-change (2. order) :-0.7744099E-03  (-0.1195038E-03)
 number of electron      79.9999998 magnetization 
 augmentation part       79.9999998 magnetization 

 Free energy of the ion-electron system (eV)
  ---------------------------------------------------
  alpha Z        PSCENC =       200.67770252
  Ewald energy   TEWEN  =     -5906.36127324
  -Hartree energ DENC   =     -2405.93000947
  -exchange      EXHF   =         0.00000000
  -V(xc)+E(xc)   XCENC  =       225.00475253
  PAW double counting   =      8367.25946354    -8461.13026213
  entropy T*S    EENTRO =        -0.00000000
  eigenvalues    EBANDS =      -653.01913504
  atomic energy  EATOM  =      8600.94477988
  ---------------------------------------------------
  free energy    TOTEN  =       -32.55398141 eV

  energy without entropy =      -32.55398141  energy(sigma->0) =      -32.55398141


--------------------------------------------------------------------------------------------------------




--------------------------------------- Iteration      1(  10)  ---------------------------------------


    TRIAL :  cpu time   27.5088: real time   27.7559
    CORREC:  cpu time    5.9815: real time    5.9911
    --------------------------------------------
      LOOP:  cpu time   33.4905: real time   33.7472

 eigenvalue-minimisations  :     0
 total energy-change (2. order) :-0.1195022E-03  (-0.3655397E-04)
 number of electron      79.9999998 magnetization 
 augmentation part       79.9999998 magnetization 

 Free energy of the ion-electron system (eV)
  ---------------------------------------------------
  alpha Z        PSCENC =       200.67770252
  Ewald energy   TEWEN  =     -5906.36127324
  -Hartree energ DENC   =     -2405.93000947
  -exchange      EXHF   =         0.00000000
  -V(xc)+E(xc)   XCENC  =       225.00475253
  PAW double counting   =      8367.25946354    -8461.13026213
  entropy T*S    EENTRO =        -0.00000000
  eigenvalues    EBANDS =      -653.01925454
  atomic energy  EATOM  =      8600.94477988
  ---------------------------------------------------
  free energy    TOTEN  =       -32.55410091 eV

  energy without entropy =      -32.55410091  energy(sigma->0) =      -32.55410091


--------------------------------------------------------------------------------------------------------




--------------------------------------- Iteration      1(  11)  ---------------------------------------


    TRIAL :  cpu time   27.3020: real time   27.7252
    CORREC:  cpu time    5.9706: real time    5.9825
    --------------------------------------------
      LOOP:  cpu time   33.2728: real time   33.7079

 eigenvalue-minimisations  :     0
 total energy-change (2. order) :-0.3655359E-04  (-0.8153472E-05)
 number of electron      79.9999998 magnetization 
 augmentation part       79.9999998 magnetization 

 Free energy of the ion-electron system (eV)
  ---------------------------------------------------
  alpha Z        PSCENC =       200.67770252
  Ewald energy   TEWEN  =     -5906.36127324
  -Hartree energ DENC   =     -2405.93000947
  -exchange      EXHF   =         0.00000000
  -V(xc)+E(xc)   XCENC  =       225.00475253
  PAW double counting   =      8367.25946354    -8461.13026213
  entropy T*S    EENTRO =        -0.00000000
  eigenvalues    EBANDS =      -653.01929109
  atomic energy  EATOM  =      8600.94477988
  ---------------------------------------------------
  free energy    TOTEN  =       -32.55413746 eV

  energy without entropy =      -32.55413746  energy(sigma->0) =      -32.55413746


--------------------------------------------------------------------------------------------------------




--------------------------------------- Iteration      1(  12)  ---------------------------------------


    TRIAL :  cpu time   27.4547: real time   27.7457
    CORREC:  cpu time    5.9646: real time    5.9764
    --------------------------------------------
      LOOP:  cpu time   33.4194: real time   33.7223

 eigenvalue-minimisations  :     0
 total energy-change (2. order) :-0.8153444E-05  (-0.1441135E-05)
 number of electron      79.9999998 magnetization 
 augmentation part       79.9999998 magnetization 

 Free energy of the ion-electron system (eV)
  ---------------------------------------------------
  alpha Z        PSCENC =       200.67770252
  Ewald energy   TEWEN  =     -5906.36127324
  -Hartree energ DENC   =     -2405.93000947
  -exchange      EXHF   =         0.00000000
  -V(xc)+E(xc)   XCENC  =       225.00475253
  PAW double counting   =      8367.25946354    -8461.13026213
  entropy T*S    EENTRO =        -0.00000000
  eigenvalues    EBANDS =      -653.01929925
  atomic energy  EATOM  =      8600.94477988
  ---------------------------------------------------
  free energy    TOTEN  =       -32.55414562 eV

  energy without entropy =      -32.55414562  energy(sigma->0) =      -32.55414562


--------------------------------------------------------------------------------------------------------




--------------------------------------- Iteration      1(  13)  ---------------------------------------


    TRIAL :  cpu time   27.3120: real time   27.5896
    CORREC:  cpu time    5.9708: real time    5.9885
    --------------------------------------------
      LOOP:  cpu time   33.2830: real time   33.5782

 eigenvalue-minimisations  :     0
 total energy-change (2. order) :-0.1441127E-05  (-0.3190511E-06)
 number of electron      79.9999998 magnetization 
 augmentation part       79.9999998 magnetization 

 Free energy of the ion-electron system (eV)
  ---------------------------------------------------
  alpha Z        PSCENC =       200.67770252
  Ewald energy   TEWEN  =     -5906.36127324
  -Hartree energ DENC   =     -2405.93000947
  -exchange      EXHF   =         0.00000000
  -V(xc)+E(xc)   XCENC  =       225.00475253
  PAW double counting   =      8367.25946354    -8461.13026213
  entropy T*S    EENTRO =        -0.00000000
  eigenvalues    EBANDS =      -653.01930069
  atomic energy  EATOM  =      8600.94477988
  ---------------------------------------------------
  free energy    TOTEN  =       -32.55414706 eV

  energy without entropy =      -32.55414706  energy(sigma->0) =      -32.55414706


--------------------------------------------------------------------------------------------------------




--------------------------------------- Iteration      1(  14)  ---------------------------------------


    TRIAL :  cpu time   27.5771: real time   28.2383
    CORREC:  cpu time    5.9253: real time    6.1638
    --------------------------------------------
      LOOP:  cpu time   33.5027: real time   34.4022

 eigenvalue-minimisations  :     0
 total energy-change (2. order) :-0.3190471E-06  (-0.1009047E-06)
 number of electron      79.9999998 magnetization 
 augmentation part       79.9999998 magnetization 

 Free energy of the ion-electron system (eV)
  ---------------------------------------------------
  alpha Z        PSCENC =       200.67770252
  Ewald energy   TEWEN  =     -5906.36127324
  -Hartree energ DENC   =     -2405.93000947
  -exchange      EXHF   =         0.00000000
  -V(xc)+E(xc)   XCENC  =       225.00475253
  PAW double counting   =      8367.25946354    -8461.13026213
  entropy T*S    EENTRO =        -0.00000000
  eigenvalues    EBANDS =      -653.01930101
  atomic energy  EATOM  =      8600.94477988
  ---------------------------------------------------
  free energy    TOTEN  =       -32.55414738 eV

  energy without entropy =      -32.55414738  energy(sigma->0) =      -32.55414738


--------------------------------------------------------------------------------------------------------




--------------------------------------- Iteration      1(  15)  ---------------------------------------


    TRIAL :  cpu time   27.7390: real time   28.0364
    CORREC:  cpu time    6.0360: real time    6.1252
    --------------------------------------------
      LOOP:  cpu time   33.7752: real time   34.1618

 eigenvalue-minimisations  :     0
 total energy-change (2. order) :-0.1009066E-06  (-0.3308584E-07)
 number of electron      79.9999998 magnetization 
 augmentation part       79.9999998 magnetization 

 Free energy of the ion-electron system (eV)
  ---------------------------------------------------
  alpha Z        PSCENC =       200.67770252
  Ewald energy   TEWEN  =     -5906.36127324
  -Hartree energ DENC   =     -2405.93000947
  -exchange      EXHF   =         0.00000000
  -V(xc)+E(xc)   XCENC  =       225.00475253
  PAW double counting   =      8367.25946354    -8461.13026213
  entropy T*S    EENTRO =        -0.00000000
  eigenvalues    EBANDS =      -653.01930111
  atomic energy  EATOM  =      8600.94477988
  ---------------------------------------------------
  free energy    TOTEN  =       -32.55414748 eV

  energy without entropy =      -32.55414748  energy(sigma->0) =      -32.55414748


--------------------------------------------------------------------------------------------------------




[...]
     34       1.4115      2.00000
     35       1.7002      2.00000
     36       1.7002      2.00000
     37       3.4783      2.00000
     38       3.4783      2.00000
     39       3.7747      2.00000
     40       3.7747      2.00000
     41       7.4878      0.00000
     42       7.4878      0.00000
     43       7.6586      0.00000
     44       7.6586      0.00000
     45       9.6686      0.00000
     46       9.6686      0.00000
     47       9.6868      0.00000
     48       9.6868      0.00000
     49      11.3595      0.00000
     50      11.3595      0.00000
     51      11.5487      0.00000
     52      11.5487      0.00000
     53      11.7045      0.00000
     54      11.7045      0.00000
     55      12.3104      0.00000
     56      12.3104      0.00000
     57      14.3576      0.00000
     58      14.3576      0.00000
     59      14.8795      0.00000
     60      14.8795      0.00000
     61      15.5301      0.00000
     62      15.5301      0.00000
     63      15.7980      0.00000
     64      15.7980      0.00000
     65      17.0265      0.00000
     66      17.0265      0.00000
     67      17.1658      0.00000
     68      17.1658      0.00000
     69      17.5626      0.00000
     70      17.5626      0.00000
     71      17.5927      0.00000
     72      17.5927      0.00000
     73      18.7373      0.00000
     74      18.7373      0.00000
     75      18.9082      0.00000
     76      18.9082      0.00000
     77      19.8546      0.00000
     78      19.8546      0.00000
     79      19.8841      0.00000
     80      19.8841      0.00000
     81      20.2618      0.00000
     82      20.2618      0.00000
     83      20.3267      0.00000
     84      20.3267      0.00000
     85      21.0503      0.00000
     86      21.0503      0.00000
     87      21.1450      0.00000
     88      21.1451      0.00000
     89      21.8692      0.00000
     90      21.8794      0.00000
     91      21.9251      0.00000
     92      21.9310      0.00000
     93      22.8789      0.00000
     94      22.9177      0.00000
     95      23.0188      0.00000
     96      23.2021      0.00000

 k-point   223 :       0.5000    0.5000    0.4444
  band No.  band energies     occupation 
      1     -16.2245      2.00000
      2     -16.2245      2.00000
      3     -16.2235      2.00000
      4     -16.2235      2.00000
      5     -16.1975      2.00000
      6     -16.1975      2.00000
      7     -16.1964      2.00000
      8     -16.1964      2.00000
      9     -16.1856      2.00000
     10     -16.1856      2.00000
     11     -16.1848      2.00000
     12     -16.1848      2.00000
     13     -16.1642      2.00000
     14     -16.1642      2.00000
     15     -16.1629      2.00000
     16     -16.1629      2.00000
     17     -16.1405      2.00000
     18     -16.1405      2.00000
     19     -16.1397      2.00000
     20     -16.1397      2.00000
     21      -7.2688      2.00000
     22      -7.2688      2.00000
     23      -7.2671      2.00000
     24      -7.2671      2.00000
     25      -1.5995      2.00000
     26      -1.5995      2.00000
     27      -1.5741      2.00000
     28      -1.5741      2.00000
     29       0.6652      2.00000
     30       0.6652      2.00000
     31       0.8095      2.00000
     32       0.8095      2.00000
     33       1.4646      2.00000
     34       1.4646      2.00000
     35       1.6146      2.00000
     36       1.6146      2.00000
     37       3.5753      2.00000
     38       3.5753      2.00000
     39       3.7262      2.00000
     40       3.7262      2.00000
     41       7.5021      0.00000
     42       7.5021      0.00000
     43       7.5909      0.00000
     44       7.5909      0.00000
     45       9.6700      0.00000
     46       9.6700      0.00000
     47       9.6782      0.00000
     48       9.6782      0.00000
     49      11.4346      0.00000
     50      11.4346      0.00000
     51      11.5197      0.00000
     52      11.5197      0.00000
     53      11.8647      0.00000
     54      11.8647      0.00000
     55      12.1942      0.00000
     56      12.1942      0.00000
     57      14.4572      0.00000
     58      14.4572      0.00000
     59      14.7470      0.00000
     60      14.7470      0.00000
     61      15.5562      0.00000
     62      15.5562      0.00000
     63      15.6745      0.00000
     64      15.6745      0.00000
     65      17.0511      0.00000
     66      17.0511      0.00000
     67      17.1237      0.00000
     68      17.1237      0.00000
     69      17.5704      0.00000
     70      17.5704      0.00000
     71      17.5864      0.00000
     72      17.5864      0.00000
     73      18.7654      0.00000
     74      18.7654      0.00000
     75      18.8509      0.00000
     76      18.8509      0.00000
     77      19.9104      0.00000
     78      19.9104      0.00000
     79      19.9257      0.00000
     80      19.9257      0.00000
     81      20.2870      0.00000
     82      20.2871      0.00000
     83      20.3172      0.00000
     84      20.3172      0.00000
     85      21.1568      0.00000
     86      21.1569      0.00000
     87      21.2354      0.00000
     88      21.2355      0.00000
     89      21.9999      0.00000
     90      22.0180      0.00000
     91      22.1673      0.00000
     92      22.1905      0.00000
     93      22.7008      0.00000
     94      22.8018      0.00000
     95      22.9244      0.00000
     96      23.1584      0.00000

 k-point   224 :       0.5000    0.5000    0.5000
  band No.  band energies     occupation 
      1     -16.2240      2.00000
      2     -16.2240      2.00000
      3     -16.2240      2.00000
      4     -16.2240      2.00000
      5     -16.1970      2.00000
      6     -16.1970      2.00000
      7     -16.1970      2.00000
      8     -16.1970      2.00000
      9     -16.1852      2.00000
     10     -16.1852      2.00000
     11     -16.1852      2.00000
     12     -16.1852      2.00000
     13     -16.1636      2.00000
     14     -16.1636      2.00000
     15     -16.1636      2.00000
     16     -16.1636      2.00000
     17     -16.1401      2.00000
     18     -16.1401      2.00000
     19     -16.1401      2.00000
     20     -16.1401      2.00000
     21      -7.2680      2.00000
     22      -7.2680      2.00000
     23      -7.2680      2.00000
     24      -7.2680      2.00000
     25      -1.5871      2.00000
     26      -1.5871      2.00000
     27      -1.5871      2.00000
     28      -1.5871      2.00000
     29       0.7375      2.00000
     30       0.7375      2.00000
     31       0.7375      2.00000
     32       0.7375      2.00000
     33       1.5345      2.00000
     34       1.5345      2.00000
     35       1.5345      2.00000
     36       1.5345      2.00000
     37       3.6590      2.00000
     38       3.6590      2.00000
     39       3.6590      2.00000
     40       3.6590      2.00000
     41       7.5373      0.00000
     42       7.5373      0.00000
     43       7.5373      0.00000
     44       7.5373      0.00000
     45       9.6729      0.00000
     46       9.6729      0.00000
     47       9.6729      0.00000
     48       9.6729      0.00000
     49      11.4834      0.00000
     50      11.4834      0.00000
     51      11.4834      0.00000
     52      11.4834      0.00000
     53      12.0379      0.00000
     54      12.0379      0.00000
     55      12.0379      0.00000
     56      12.0379      0.00000
     57      14.5966      0.00000
     58      14.5966      0.00000
     59      14.5966      0.00000
     60      14.5966      0.00000
     61      15.5995      0.00000
     62      15.5995      0.00000
     63      15.5995      0.00000
     64      15.5995      0.00000
     65      17.0845      0.00000
     66      17.0845      0.00000
     67      17.0845      0.00000
     68      17.0845      0.00000
     69      17.5787      0.00000
     70      17.5787      0.00000
     71      17.5787      0.00000
     72      17.5787      0.00000
     73      18.8032      0.00000
     74      18.8032      0.00000
     75      18.8032      0.00000
     76      18.8032      0.00000
     77      19.9353      0.00000
     78      19.9353      0.00000
     79      19.9353      0.00000
     80      19.9355      0.00000
     81      20.3021      0.00000
     82      20.3021      0.00000
     83      20.3021      0.00000
     84      20.3021      0.00000
     85      21.2295      0.00000
     86      21.2297      0.00000
     87      21.2298      0.00000
     88      21.2327      0.00000
     89      22.1792      0.00000
     90      22.1829      0.00000
     91      22.2128      0.00000
     92      22.3203      0.00000
     93      22.6543      0.00000
     94      22.6662      0.00000
     95      22.9640      0.00000
     96      23.0439      0.00000


--------------------------------------------------------------------------------------------------------


 soft charge-density along one line, spin component           1
         0         1         2         3         4         5         6         7         8         9
 total charge-density along one line

 pseudopotential strength for first ion, spin component:           1
-17.682  -0.000  -0.000   0.015   0.000   3.572   0.000   0.000
 -0.000 -17.670   0.006   0.000  -0.014   0.000   3.565  -0.003
 -0.000   0.006 -17.660   0.000   0.001   0.000  -0.003   3.561
  0.015   0.000   0.000 -17.672  -0.000  -0.007  -0.000  -0.000
  0.000  -0.014   0.001  -0.000 -17.688  -0.000   0.007  -0.000
  3.572   0.000   0.000  -0.007  -0.000   4.161  -0.000  -0.000
  0.000   3.565  -0.003  -0.000   0.007  -0.000   4.165   0.002
  0.000  -0.003   3.561  -0.000  -0.000  -0.000   0.002   4.166
 -0.007  -0.000  -0.000   3.566   0.000   0.003   0.000  -0.000
 -0.000   0.007  -0.000   0.000   3.574  -0.000  -0.003   0.000
  0.000   0.001   0.000  -0.000   0.000  -0.000  -0.002  -0.002
 -0.000  -0.003  -0.002   0.000  -0.000   0.000   0.004   0.003
 -0.000   0.013  -0.006   0.000  -0.011   0.000   0.001   0.000
  0.000   0.011   0.015  -0.000   0.000  -0.000   0.002   0.001
  0.011   0.000   0.000   0.013  -0.000  -0.000  -0.000   0.000
 -0.000   0.020  -0.010   0.000  -0.017   0.000   0.003  -0.000
  0.000   0.017   0.023  -0.000   0.000  -0.000   0.004   0.002
  0.018   0.000   0.000   0.020  -0.000   0.000  -0.000   0.000
 total augmentation occupancy for first ion, spin component:           1
  2.000   0.000   0.000   0.000   0.000   0.000   0.000   0.000   0.000   0.000   0.000   0.000   0.000   0.000   0.000   0.000
  0.000   2.000   0.000   0.000   0.000   0.000   0.000   0.000   0.000   0.000   0.000   0.000   0.000   0.000   0.000   0.000
  0.000   0.000   2.000   0.000   0.000   0.000   0.000   0.000   0.000   0.000   0.000   0.000   0.000   0.000   0.000   0.000
  0.000   0.000   0.000   2.000   0.000   0.000   0.000   0.000   0.000   0.000   0.000   0.000   0.000   0.000   0.000   0.000
  0.000   0.000   0.000   0.000   2.000   0.000   0.000   0.000   0.000   0.000   0.000   0.000   0.000   0.000   0.000   0.000
  0.000   0.000   0.000   0.000   0.000   0.000   0.000   0.000   0.000   0.000   0.000   0.000   0.000   0.000   0.000   0.000
  0.000   0.000   0.000   0.000   0.000   0.000   0.000   0.000   0.000   0.000   0.000   0.000   0.000   0.000   0.000   0.000
  0.000   0.000   0.000   0.000   0.000   0.000   0.000   0.000   0.000   0.000   0.000   0.000   0.000   0.000   0.000   0.000
  0.000   0.000   0.000   0.000   0.000   0.000   0.000   0.000   0.000   0.000   0.000   0.000   0.000   0.000   0.000   0.000
  0.000   0.000   0.000   0.000   0.000   0.000   0.000   0.000   0.000   0.000   0.000   0.000   0.000   0.000   0.000   0.000
  0.000   0.000   0.000   0.000   0.000   0.000   0.000   0.000   0.000   0.000   2.000   0.000   0.000   0.000   0.000   0.000
  0.000   0.000   0.000   0.000   0.000   0.000   0.000   0.000   0.000   0.000   0.000   0.000   0.000   0.000   0.000   0.000
  0.000   0.000   0.000   0.000   0.000   0.000   0.000   0.000   0.000   0.000   0.000   0.000   0.667   0.000   0.000   0.000
  0.000   0.000   0.000   0.000   0.000   0.000   0.000   0.000   0.000   0.000   0.000   0.000   0.000   0.667   0.000   0.000
  0.000   0.000   0.000   0.000   0.000   0.000   0.000   0.000   0.000   0.000   0.000   0.000   0.000   0.000   0.667   0.000
  0.000   0.000   0.000   0.000   0.000   0.000   0.000   0.000   0.000   0.000   0.000   0.000   0.000   0.000   0.000   0.000
  0.000   0.000   0.000   0.000   0.000   0.000   0.000   0.000   0.000   0.000   0.000   0.000   0.000   0.000   0.000   0.000
  0.000   0.000   0.000   0.000   0.000   0.000   0.000   0.000   0.000   0.000   0.000   0.000   0.000   0.000   0.000   0.000


------------------------ aborting loop because EDIFF is reached ----------------------------------------


    CHARGE:  cpu time    1.3405: real time    1.3459
    FORLOC:  cpu time    0.0059: real time    0.0059
    FORNL :  cpu time   25.8261: real time   26.1416
    STRESS:  cpu time   26.1347: real time   26.2893
    FORCOR:  cpu time    0.0749: real time    0.0750
    FORHAR:  cpu time    0.0220: real time    0.0220
    OFIELD:  cpu time    0.0004: real time    0.0004

 ---------------------------------------------------------------------------------------------

         DFTD3 V3.0 Rev 1        
 IVDW         = 11
 DF pbe       
 parameters
 VDW_S6       =    1.0000
 VDW_S8       =    0.7220
 VDW_SR       =    1.2170
 rs18     =    1.0000
 alpha6   =   14.0000
 alpha8   =   16.0000
 k1-k3    =   16.0000    1.3333   -4.0000
 VDW_RADIUS   =   50.2022 A
 VDW_CNRADIUS =   21.1671 A
 Edisp (eV)   -1.75835

 E6    (eV) :    -0.7172
 E8    (eV) :    -1.0412
 % E8        : 59.21
    FORVDW:  cpu time    0.0538: real time    0.0641

  FORCE on cell =-STRESS in cart. coord.  units (eV):
  Direction    XX          YY          ZZ          XY          YZ          ZX
  --------------------------------------------------------------------------------------
  Alpha Z   200.67770   200.67770   200.67770
  Ewald   -1875.22499 -2127.90084 -1903.24298     0.00000    -0.00000     0.00000
  Hartree   864.18920   688.24363   852.52759    -0.00000    -0.00000    -0.00000
  E(xc)    -371.02325  -371.08202  -371.02125     0.00000    -0.00000    -0.00000
  Local    -611.05610  -183.95144  -579.60976    -0.00000     0.00000     0.00000
  n-local   446.85486   444.49575   450.17438     0.00000     0.00000     0.00000
  augment   696.42841   696.79824   695.80965     0.00000     0.00000    -0.00000
  Kinetic   651.79828   653.70010   653.62896    -0.00000     0.00000    -0.00000
  Fock        0.00000     0.00000     0.00000     0.00000     0.00000     0.00000
  vdW        -1.41125    -1.19538    -1.34300    -0.00000    -0.00000     0.00000
  -------------------------------------------------------------------------------------
  Total       1.23286    -0.21426    -2.39870    -0.00000     0.00000     0.00000
  in kB       8.96909    -1.55875   -17.45062    -0.00000     0.00000     0.00000
  external pressure =       -3.35 kB  Pullay stress =        0.00 kB


 VOLUME and BASIS-vectors are now :
 -----------------------------------------------------------------------------
  energy-cutoff  :      600.00
  volume of cell :      220.23
      direct lattice vectors                 reciprocal lattice vectors
     4.172141830  0.000000000  0.000000000     0.239685044  0.000000000  0.000000000
     0.000000000  4.555208070  0.000000000     0.000000000  0.219528940  0.000000000
     0.000000000  0.000000000 11.588013930     0.000000000  0.000000000  0.086296065

  length of vectors
     4.172141830  4.555208070 11.588013930     0.239685044  0.219528940  0.086296065


 FORCES acting on ions
    electron-ion (+dipol)            ewald-force                    non-local-force                 convergence-correction
 -----------------------------------------------------------------------------------------------
   0.273E-12 0.135E+02 0.106E+02   -.114E-14 -.195E+02 -.191E+02   0.529E-22 0.769E+01 0.963E+01   0.142E-11 -.155E+01 -.104E+01
   0.112E-11 -.135E+02 -.106E+02   0.407E-15 0.195E+02 0.191E+02   0.000E+00 -.769E+01 -.963E+01   0.176E-11 0.155E+01 0.104E+01
   0.113E-11 0.135E+02 -.106E+02   0.142E-13 -.195E+02 0.191E+02   0.265E-22 0.769E+01 -.963E+01   0.313E-11 -.155E+01 0.104E+01
   0.321E-12 -.135E+02 0.106E+02   0.105E-14 0.195E+02 -.191E+02   -.132E-22 -.769E+01 0.963E+01   0.391E-11 0.155E+01 -.104E+01
   -.781E-13 -.334E+02 0.298E+02   -.886E-14 0.336E+02 -.306E+02   -.331E-23 -.521E+00 0.106E+01   0.978E-12 0.286E+00 -.202E+00
   -.974E-13 0.334E+02 -.298E+02   0.952E-14 -.336E+02 0.306E+02   0.331E-23 0.521E+00 -.106E+01   0.604E-12 -.286E+00 0.202E+00
   -.737E-13 -.334E+02 -.298E+02   -.107E-13 0.336E+02 0.306E+02   -.165E-23 -.521E+00 -.106E+01   0.871E-12 0.286E+00 0.202E+00
   -.530E-13 0.334E+02 0.298E+02   0.199E-14 -.336E+02 -.306E+02   -.165E-23 0.521E+00 0.106E+01   0.121E-11 -.286E+00 -.202E+00
 -----------------------------------------------------------------------------------------------
   0.254E-11 -.101E-09 0.285E-10   0.649E-14 -.284E-13 -.107E-12   0.629E-22 0.888E-15 0.000E+00   0.139E-10 0.564E-10 -.170E-10


 POSITION                                       TOTAL-FORCE (eV/Angst)
 -----------------------------------------------------------------------------------
      1.04304      0.51535      1.35530        -0.000000      0.113716      0.071501
      3.12911      4.03986     10.23271         0.000000     -0.113716     -0.071501
      3.12911      2.79295      4.43870         0.000000      0.113716     -0.071501
      1.04304      1.76226      7.14931         0.000000     -0.113716      0.071501
      3.12911      2.36098      1.68327         0.000000     -0.138237      0.071263
      1.04304      2.19423      9.90475         0.000000      0.138237     -0.071263
      1.04304      0.08337      4.11074         0.000000     -0.138237     -0.071263
      3.12911      4.47183      7.47728         0.000000      0.138237      0.071263
 -----------------------------------------------------------------------------------
    total drift:                                0.000000     -0.000000      0.000000


--------------------------------------------------------------------------------------------------------



  FREE ENERGIE OF THE ION-ELECTRON SYSTEM (eV)
  ---------------------------------------------------
  free  energy   TOTEN  =       -34.31249807 eV

  energy  without entropy=      -34.31249807  energy(sigma->0) =      -34.31249807



--------------------------------------------------------------------------------------------------------


    POTLOK:  cpu time    0.1624: real time    0.1625


--------------------------------------------------------------------------------------------------------


     LOOP+:  cpu time  699.3721: real time  707.3001
    4ORBIT:  cpu time    0.0000: real time    0.0000

 total amount of memory used by VASP MPI-rank0  1271404. kBytes
=======================================================================

   base      :      30000. kBytes
   nonl-proj :     239426. kBytes
   fftplans  :      20075. kBytes
   grid      :       9517. kBytes
   one-center:         62. kBytes
   wavefun   :     972324. kBytes

  
  
 General timing and accounting informations for this job:
 ========================================================
  
                  Total CPU time used (sec):      710.053
                            User time (sec):      697.031
                          System time (sec):       13.022
                         Elapsed time (sec):      718.042
  
                   Maximum memory used (kb):     1430168.
                   Average memory used (kb):           0.
  
                          Minor page faults:       280653
                          Major page faults:            0
                 Voluntary context switches:         4759
