<?xml version="1.0" encoding="ISO-8859-1"?>
<modeling>
 <generator>
  <i name="program" type="string">vasp </i>
  <i name="version" type="string">5.4.4.18Apr17-6-g9f103f2a35  </i>
  <i name="subversion" type="string">(build Mar 20 2018 18:01:20) complex            parallel </i>
  <i name="platform" type="string">LinuxGNU </i>
  <i name="date" type="string">2020 07 13 </i>
  <i name="time" type="string">20:40:41 </i>
 </generator>
 <incar>
  <i type="string" name="SYSTEM"> SnSe</i>
  <i type="int" name="ISTART">     1</i>
  <i type="string" name="PREC">accurate</i>
  <i type="string" name="ALGO"> A</i>
  <i type="logical" name="ADDGRID"> T  </i>
  <i type="int" name="ISPIN">     1</i>
  <i type="int" name="ICHARG">    11</i>
  <i type="int" name="IBRION">    -1</i>
  <i name="EDIFF">      0.00000010</i>
  <i name="EDIFFG">     -0.00100000</i>
  <i type="int" name="NSW">     0</i>
  <i name="ENCUT">    600.00000000</i>
  <i type="int" name="NBANDS">    96</i>
  <i type="logical" name="LREAL"> F  </i>
  <i type="logical" name="LPLANE"> T  </i>
  <i type="int" name="ISMEAR">     0</i>
  <i name="SIGMA">      0.01000000</i>
  <i type="int" name="LMAXMIX">     4</i>
  <i type="logical" name="LWAVE"> F  </i>
  <i type="logical" name="LCHARG"> F  </i>
  <v type="int" name="KPOINT_BSE">    -1     0     0     0</v>
 </incar>
 <structure name="primitive_cell" >
  <crystal>
   <varray name="basis" >
    <v>       4.17214183       0.00000000       0.00000000 </v>
    <v>       0.00000000       4.55520807       0.00000000 </v>
    <v>       0.00000000       0.00000000      11.58801393 </v>
   </varray>
   <i name="volume">    220.22990499 </i>
   <varray name="rec_basis" >
    <v>       0.23968504       0.00000000       0.00000000 </v>
    <v>       0.00000000       0.21952894       0.00000000 </v>
    <v>       0.00000000       0.00000000       0.08629606 </v>
   </varray>
  </crystal>
  <varray name="positions" >
   <v>       0.25000000       0.11313331       0.11695741 </v>
   <v>       0.25000000       0.01830297       0.35474052 </v>
   <v>      -0.25000000      -0.48169703       0.14525948 </v>
   <v>       0.25000000       0.48169703      -0.14525948 </v>
   <v>      -0.25000000      -0.11313331      -0.11695741 </v>
   <v>      -0.25000000      -0.38686669       0.38304259 </v>
   <v>      -0.25000000      -0.01830297      -0.35474052 </v>
   <v>       0.25000000       0.38686669      -0.38304259 </v>
  </varray>
 </structure>
 <varray name="primitive_index" >
  <v type="int" >        1 </v>
  <v type="int" >        7 </v>
  <v type="int" >        5 </v>
  <v type="int" >        6 </v>
  <v type="int" >        2 </v>
  <v type="int" >        3 </v>
  <v type="int" >        8 </v>
  <v type="int" >        4 </v>
 </varray>
 <kpoints>
  <varray name="kpointlist" >
   <v>       0.00000000       0.00000000       0.00000000 </v>
   <v>       0.02173913       0.00000000       0.00000000 </v>
   <v>       0.04347826       0.00000000       0.00000000 </v>
   <v>       0.06521739       0.00000000       0.00000000 </v>
   <v>       0.08695652       0.00000000       0.00000000 </v>
   <v>       0.10869565       0.00000000       0.00000000 </v>
   <v>       0.13043478       0.00000000       0.00000000 </v>
   <v>       0.15217391      -0.00000000       0.00000000 </v>
   <v>       0.17391304       0.00000000       0.00000000 </v>
   <v>       0.19565217       0.00000000       0.00000000 </v>
   <v>       0.21739130       0.00000000       0.00000000 </v>
   <v>       0.23913043       0.00000000       0.00000000 </v>
   <v>       0.26086957       0.00000000       0.00000000 </v>
   <v>       0.28260870      -0.00000000       0.00000000 </v>
   <v>       0.30434783      -0.00000000       0.00000000 </v>
   <v>       0.32608696       0.00000000       0.00000000 </v>
   <v>       0.34782609       0.00000000       0.00000000 </v>
   <v>       0.36956522      -0.00000000       0.00000000 </v>
   <v>       0.39130435       0.00000000       0.00000000 </v>
   <v>       0.41304348      -0.00000000       0.00000000 </v>
   <v>       0.43478261       0.00000000       0.00000000 </v>
   <v>       0.45652174      -0.00000000       0.00000000 </v>
   <v>       0.47826087       0.00000000       0.00000000 </v>
   <v>       0.50000000       0.00000000       0.00000000 </v>
   <v>       0.50000000       0.00000000       0.00000000 </v>
   <v>       0.50000000       0.02380952       0.00000000 </v>
   <v>       0.50000000       0.04761905       0.00000000 </v>
   <v>       0.50000000       0.07142857       0.00000000 </v>
   <v>       0.50000000       0.09523810       0.00000000 </v>
   <v>       0.50000000       0.11904762       0.00000000 </v>
   <v>       0.50000000       0.14285714       0.00000000 </v>
   <v>       0.50000000       0.16666667       0.00000000 </v>
   <v>       0.50000000       0.19047619       0.00000000 </v>
   <v>       0.50000000       0.21428571       0.00000000 </v>
   <v>       0.50000000       0.23809524       0.00000000 </v>
   <v>       0.50000000       0.26190476       0.00000000 </v>
   <v>       0.50000000       0.28571429       0.00000000 </v>
   <v>       0.50000000       0.30952381       0.00000000 </v>
   <v>       0.50000000       0.33333333       0.00000000 </v>
   <v>       0.50000000       0.35714286       0.00000000 </v>
   <v>       0.50000000       0.38095238       0.00000000 </v>
   <v>       0.50000000       0.40476190       0.00000000 </v>
   <v>       0.50000000       0.42857143       0.00000000 </v>
   <v>       0.50000000       0.45238095       0.00000000 </v>
   <v>       0.50000000       0.47619048       0.00000000 </v>
   <v>       0.50000000       0.50000000       0.00000000 </v>
   <v>       0.50000000       0.50000000       0.00000000 </v>
   <v>       0.47826087       0.50000000       0.00000000 </v>
   <v>       0.45652174       0.50000000       0.00000000 </v>
   <v>       0.43478261       0.50000000       0.00000000 </v>
   <v>       0.41304348       0.50000000       0.00000000 </v>
   <v>       0.39130435       0.50000000       0.00000000 </v>
   <v>       0.36956522       0.50000000       0.00000000 </v>
   <v>       0.34782609       0.50000000       0.00000000 </v>
   <v>       0.32608696       0.50000000       0.00000000 </v>
   <v>       0.30434783       0.50000000       0.00000000 </v>
   <v>       0.28260870       0.50000000       0.00000000 </v>
   <v>       0.26086957       0.50000000       0.00000000 </v>
   <v>       0.23913043       0.50000000       0.00000000 </v>
   <v>       0.21739130       0.50000000       0.00000000 </v>
   <v>       0.19565217       0.50000000       0.00000000 </v>
   <v>       0.17391304       0.50000000       0.00000000 </v>
   <v>       0.15217391       0.50000000       0.00000000 </v>
   <v>       0.13043478       0.50000000       0.00000000 </v>
   <v>       0.10869565       0.50000000       0.00000000 </v>
   <v>       0.08695652       0.50000000       0.00000000 </v>
   <v>       0.06521739       0.50000000       0.00000000 </v>
   <v>       0.04347826       0.50000000       0.00000000 </v>
   <v>       0.02173913       0.50000000       0.00000000 </v>
   <v>       0.00000000       0.50000000       0.00000000 </v>
   <v>       0.00000000       0.50000000       0.00000000 </v>
   <v>       0.00000000       0.47619048       0.00000000 </v>
   <v>       0.00000000       0.45238095       0.00000000 </v>
   <v>       0.00000000       0.42857143       0.00000000 </v>
   <v>       0.00000000       0.40476190       0.00000000 </v>
   <v>       0.00000000       0.38095238       0.00000000 </v>
   <v>       0.00000000       0.35714286       0.00000000 </v>
   <v>       0.00000000       0.33333333       0.00000000 </v>
   <v>       0.00000000       0.30952381       0.00000000 </v>
   <v>       0.00000000       0.28571429       0.00000000 </v>
   <v>       0.00000000       0.26190476       0.00000000 </v>
   <v>       0.00000000       0.23809524       0.00000000 </v>
   <v>       0.00000000       0.21428571       0.00000000 </v>
   <v>       0.00000000       0.19047619       0.00000000 </v>
   <v>       0.00000000       0.16666667       0.00000000 </v>
   <v>       0.00000000       0.14285714       0.00000000 </v>
   <v>       0.00000000       0.11904762       0.00000000 </v>
   <v>       0.00000000       0.09523810       0.00000000 </v>
   <v>       0.00000000       0.07142857       0.00000000 </v>
   <v>       0.00000000       0.04761905       0.00000000 </v>
   <v>       0.00000000       0.02380952       0.00000000 </v>
   <v>       0.00000000       0.00000000       0.00000000 </v>
   <v>       0.00000000       0.00000000       0.00000000 </v>
   <v>      -0.00000000      -0.00000000       0.05555556 </v>
   <v>      -0.00000000      -0.00000000       0.11111111 </v>
   <v>      -0.00000000       0.00000000       0.16666667 </v>
   <v>      -0.00000000      -0.00000000       0.22222222 </v>
   <v>      -0.00000000       0.00000000       0.27777778 </v>
   <v>      -0.00000000       0.00000000       0.33333333 </v>
   <v>       0.00000000       0.00000000       0.38888889 </v>
   <v>      -0.00000000      -0.00000000       0.44444444 </v>
   <v>      -0.00000000       0.00000000       0.50000000 </v>
   <v>      -0.00000000       0.00000000       0.50000000 </v>
   <v>       0.02173913      -0.00000000       0.50000000 </v>
   <v>       0.04347826      -0.00000000       0.50000000 </v>
   <v>       0.06521739      -0.00000000       0.50000000 </v>
   <v>       0.08695652      -0.00000000       0.50000000 </v>
   <v>       0.10869565       0.00000000       0.50000000 </v>
   <v>       0.13043478       0.00000000       0.50000000 </v>
   <v>       0.15217391      -0.00000000       0.50000000 </v>
   <v>       0.17391304      -0.00000000       0.50000000 </v>
   <v>       0.19565217       0.00000000       0.50000000 </v>
   <v>       0.21739130      -0.00000000       0.50000000 </v>
   <v>       0.23913043       0.00000000       0.50000000 </v>
   <v>       0.26086957       0.00000000       0.50000000 </v>
   <v>       0.28260870      -0.00000000       0.50000000 </v>
   <v>       0.30434783      -0.00000000       0.50000000 </v>
   <v>       0.32608696       0.00000000       0.50000000 </v>
   <v>       0.34782609      -0.00000000       0.50000000 </v>
   <v>       0.36956522      -0.00000000       0.50000000 </v>
   <v>       0.39130435       0.00000000       0.50000000 </v>
   <v>       0.41304348      -0.00000000       0.50000000 </v>
   <v>       0.43478261       0.00000000       0.50000000 </v>
   <v>       0.45652174      -0.00000000       0.50000000 </v>
   <v>       0.47826087       0.00000000       0.50000000 </v>
   <v>       0.50000000       0.00000000       0.50000000 </v>
   <v>       0.50000000       0.00000000       0.50000000 </v>
   <v>       0.50000000       0.02380952       0.50000000 </v>
   <v>       0.50000000       0.04761905       0.50000000 </v>
   <v>       0.50000000       0.07142857       0.50000000 </v>
   <v>       0.50000000       0.09523810       0.50000000 </v>
   <v>       0.50000000       0.11904762       0.50000000 </v>
   <v>       0.50000000       0.14285714       0.50000000 </v>
   <v>       0.50000000       0.16666667       0.50000000 </v>
   <v>       0.50000000       0.19047619       0.50000000 </v>
   <v>       0.50000000       0.21428571       0.50000000 </v>
   <v>       0.50000000       0.23809524       0.50000000 </v>
   <v>       0.50000000       0.26190476       0.50000000 </v>
   <v>       0.50000000       0.28571429       0.50000000 </v>
   <v>       0.50000000       0.30952381       0.50000000 </v>
   <v>       0.50000000       0.33333333       0.50000000 </v>
   <v>       0.50000000       0.35714286       0.50000000 </v>
   <v>       0.50000000       0.38095238       0.50000000 </v>
   <v>       0.50000000       0.40476190       0.50000000 </v>
   <v>       0.50000000       0.42857143       0.50000000 </v>
   <v>       0.50000000       0.45238095       0.50000000 </v>
   <v>       0.50000000       0.47619048       0.50000000 </v>
   <v>       0.50000000       0.50000000       0.50000000 </v>
   <v>       0.50000000       0.50000000       0.50000000 </v>
   <v>       0.47826087       0.50000000       0.50000000 </v>
   <v>       0.45652174       0.50000000       0.50000000 </v>
   <v>       0.43478261       0.50000000       0.50000000 </v>
   <v>       0.41304348       0.50000000       0.50000000 </v>
   <v>       0.39130435       0.50000000       0.50000000 </v>
   <v>       0.36956522       0.50000000       0.50000000 </v>
   <v>       0.34782609       0.50000000       0.50000000 </v>
   <v>       0.32608696       0.50000000       0.50000000 </v>
   <v>       0.30434783       0.50000000       0.50000000 </v>
   <v>       0.28260870       0.50000000       0.50000000 </v>
   <v>       0.26086957       0.50000000       0.50000000 </v>
   <v>       0.23913043       0.50000000       0.50000000 </v>
   <v>       0.21739130       0.50000000       0.50000000 </v>
   <v>       0.19565217       0.50000000       0.50000000 </v>
   <v>       0.17391304       0.50000000       0.50000000 </v>
   <v>       0.15217391       0.50000000       0.50000000 </v>
   <v>       0.13043478       0.50000000       0.50000000 </v>
   <v>       0.10869565       0.50000000       0.50000000 </v>
   <v>       0.08695652       0.50000000       0.50000000 </v>
   <v>       0.06521739       0.50000000       0.50000000 </v>
   <v>       0.04347826       0.50000000       0.50000000 </v>
   <v>       0.02173913       0.50000000       0.50000000 </v>
   <v>       0.00000000       0.50000000       0.50000000 </v>
   <v>      -0.00000000       0.50000000       0.50000000 </v>
   <v>      -0.00000000       0.47619048       0.50000000 </v>
   <v>      -0.00000000       0.45238095       0.50000000 </v>
   <v>      -0.00000000       0.42857143       0.50000000 </v>
   <v>      -0.00000000       0.40476190       0.50000000 </v>
   <v>      -0.00000000       0.38095238       0.50000000 </v>
   <v>      -0.00000000       0.35714286       0.50000000 </v>
   <v>      -0.00000000       0.33333333       0.50000000 </v>
   <v>      -0.00000000       0.30952381       0.50000000 </v>
   <v>      -0.00000000       0.28571429       0.50000000 </v>
   <v>      -0.00000000       0.26190476       0.50000000 </v>
   <v>      -0.00000000       0.23809524       0.50000000 </v>
   <v>      -0.00000000       0.21428571       0.50000000 </v>
   <v>      -0.00000000       0.19047619       0.50000000 </v>
   <v>      -0.00000000       0.16666667       0.50000000 </v>
   <v>      -0.00000000       0.14285714       0.50000000 </v>
   <v>      -0.00000000       0.11904762       0.50000000 </v>
   <v>      -0.00000000       0.09523810       0.50000000 </v>
   <v>      -0.00000000       0.07142857       0.50000000 </v>
   <v>      -0.00000000       0.04761905       0.50000000 </v>
   <v>      -0.00000000       0.02380952       0.50000000 </v>
   <v>      -0.00000000       0.00000000       0.50000000 </v>
   <v>       0.00000000       0.50000000       0.00000000 </v>
   <v>      -0.00000000       0.50000000       0.05555556 </v>
   <v>      -0.00000000       0.50000000       0.11111111 </v>
   <v>      -0.00000000       0.50000000       0.16666667 </v>
   <v>      -0.00000000       0.50000000       0.22222222 </v>
   <v>      -0.00000000       0.50000000       0.27777778 </v>
   <v>      -0.00000000       0.50000000       0.33333333 </v>
   <v>       0.00000000       0.50000000       0.38888889 </v>
   <v>      -0.00000000       0.50000000       0.44444444 </v>
   <v>      -0.00000000       0.50000000       0.50000000 </v>
   <v>       0.50000000       0.00000000       0.50000000 </v>
   <v>       0.50000000       0.00000000       0.44444444 </v>
   <v>       0.50000000       0.00000000       0.38888889 </v>
   <v>       0.50000000       0.00000000       0.33333333 </v>
   <v>       0.50000000       0.00000000       0.27777778 </v>
   <v>       0.50000000       0.00000000       0.22222222 </v>
   <v>       0.50000000       0.00000000       0.16666667 </v>
   <v>       0.50000000       0.00000000       0.11111111 </v>
   <v>       0.50000000       0.00000000       0.05555556 </v>
   <v>       0.50000000       0.00000000       0.00000000 </v>
   <v>       0.50000000       0.50000000       0.00000000 </v>
   <v>       0.50000000       0.50000000       0.05555556 </v>
   <v>       0.50000000       0.50000000       0.11111111 </v>
   <v>       0.50000000       0.50000000       0.16666667 </v>
   <v>       0.50000000       0.50000000       0.22222222 </v>
   <v>       0.50000000       0.50000000       0.27777778 </v>
   <v>       0.50000000       0.50000000       0.33333333 </v>
   <v>       0.50000000       0.50000000       0.38888889 </v>
   <v>       0.50000000       0.50000000       0.44444444 </v>
   <v>       0.50000000       0.50000000       0.50000000 </v>
  </varray>
  <varray name="weights" >
   <v>       0.00446429 </v>
   <v>       0.00446429 </v>
   <v>       0.00446429 </v>
   <v>       0.00446429 </v>
   <v>       0.00446429 </v>
   <v>       0.00446429 </v>
   <v>       0.00446429 </v>
   <v>       0.00446429 </v>
   <v>       0.00446429 </v>
   <v>       0.00446429 </v>
   <v>       0.00446429 </v>
   <v>       0.00446429 </v>
   <v>       0.00446429 </v>
   <v>       0.00446429 </v>
   <v>       0.00446429 </v>
   <v>       0.00446429 </v>
   <v>       0.00446429 </v>
   <v>       0.00446429 </v>
   <v>       0.00446429 </v>
   <v>       0.00446429 </v>
   <v>       0.00446429 </v>
   <v>       0.00446429 </v>
   <v>       0.00446429 </v>
   <v>       0.00446429 </v>
   <v>       0.00446429 </v>
   <v>       0.00446429 </v>
   <v>       0.00446429 </v>
   <v>       0.00446429 </v>
   <v>       0.00446429 </v>
   <v>       0.00446429 </v>
   <v>       0.00446429 </v>
   <v>       0.00446429 </v>
   <v>       0.00446429 </v>
   <v>       0.00446429 </v>
   <v>       0.00446429 </v>
   <v>       0.00446429 </v>
   <v>       0.00446429 </v>
   <v>       0.00446429 </v>
   <v>       0.00446429 </v>
   <v>       0.00446429 </v>
   <v>       0.00446429 </v>
   <v>       0.00446429 </v>
   <v>       0.00446429 </v>
   <v>       0.00446429 </v>
   <v>       0.00446429 </v>
   <v>       0.00446429 </v>
   <v>       0.00446429 </v>
   <v>       0.00446429 </v>
   <v>       0.00446429 </v>
   <v>       0.00446429 </v>
   <v>       0.00446429 </v>
   <v>       0.00446429 </v>
   <v>       0.00446429 </v>
   <v>       0.00446429 </v>
   <v>       0.00446429 </v>
   <v>       0.00446429 </v>
   <v>       0.00446429 </v>
   <v>       0.00446429 </v>
   <v>       0.00446429 </v>
   <v>       0.00446429 </v>
   <v>       0.00446429 </v>
   <v>       0.00446429 </v>
   <v>       0.00446429 </v>
   <v>       0.00446429 </v>
   <v>       0.00446429 </v>
   <v>       0.00446429 </v>
   <v>       0.00446429 </v>
   <v>       0.00446429 </v>
   <v>       0.00446429 </v>
   <v>       0.00446429 </v>
   <v>       0.00446429 </v>
   <v>       0.00446429 </v>
   <v>       0.00446429 </v>
   <v>       0.00446429 </v>
   <v>       0.00446429 </v>
   <v>       0.00446429 </v>
   <v>       0.00446429 </v>
   <v>       0.00446429 </v>
   <v>       0.00446429 </v>
   <v>       0.00446429 </v>
   <v>       0.00446429 </v>
   <v>       0.00446429 </v>
   <v>       0.00446429 </v>
   <v>       0.00446429 </v>
   <v>       0.00446429 </v>
   <v>       0.00446429 </v>
   <v>       0.00446429 </v>
   <v>       0.00446429 </v>
   <v>       0.00446429 </v>
   <v>       0.00446429 </v>
   <v>       0.00446429 </v>
   <v>       0.00446429 </v>
   <v>       0.00446429 </v>
   <v>       0.00446429 </v>
   <v>       0.00446429 </v>
   <v>       0.00446429 </v>
   <v>       0.00446429 </v>
   <v>       0.00446429 </v>
   <v>       0.00446429 </v>
   <v>       0.00446429 </v>
   <v>       0.00446429 </v>
   <v>       0.00446429 </v>
   <v>       0.00446429 </v>
   <v>       0.00446429 </v>
   <v>       0.00446429 </v>
   <v>       0.00446429 </v>
   <v>       0.00446429 </v>
   <v>       0.00446429 </v>
   <v>       0.00446429 </v>
   <v>       0.00446429 </v>
   <v>       0.00446429 </v>
   <v>       0.00446429 </v>
   <v>       0.00446429 </v>
   <v>       0.00446429 </v>
   <v>       0.00446429 </v>
   <v>       0.00446429 </v>
   <v>       0.00446429 </v>
   <v>       0.00446429 </v>
   <v>       0.00446429 </v>
   <v>       0.00446429 </v>
   <v>       0.00446429 </v>
   <v>       0.00446429 </v>
   <v>       0.00446429 </v>
   <v>       0.00446429 </v>
   <v>       0.00446429 </v>
   <v>       0.00446429 </v>
   <v>       0.00446429 </v>
   <v>       0.00446429 </v>
   <v>       0.00446429 </v>
   <v>       0.00446429 </v>
   <v>       0.00446429 </v>
   <v>       0.00446429 </v>
   <v>       0.00446429 </v>
   <v>       0.00446429 </v>
   <v>       0.00446429 </v>
   <v>       0.00446429 </v>
   <v>       0.00446429 </v>
   <v>       0.00446429 </v>
   <v>       0.00446429 </v>
   <v>       0.00446429 </v>
   <v>       0.00446429 </v>
   <v>       0.00446429 </v>
   <v>       0.00446429 </v>
   <v>       0.00446429 </v>
   <v>       0.00446429 </v>
   <v>       0.00446429 </v>
   <v>       0.00446429 </v>
   <v>       0.00446429 </v>
   <v>       0.00446429 </v>
   <v>       0.00446429 </v>
   <v>       0.00446429 </v>
   <v>       0.00446429 </v>
   <v>       0.00446429 </v>
   <v>       0.00446429 </v>
   <v>       0.00446429 </v>
   <v>       0.00446429 </v>
   <v>       0.00446429 </v>
   <v>       0.00446429 </v>
   <v>       0.00446429 </v>
   <v>       0.00446429 </v>
   <v>       0.00446429 </v>
   <v>       0.00446429 </v>
   <v>       0.00446429 </v>
   <v>       0.00446429 </v>
   <v>       0.00446429 </v>
   <v>       0.00446429 </v>
   <v>       0.00446429 </v>
   <v>       0.00446429 </v>
   <v>       0.00446429 </v>
   <v>       0.00446429 </v>
   <v>       0.00446429 </v>
   <v>       0.00446429 </v>
   <v>       0.00446429 </v>
   <v>       0.00446429 </v>
   <v>       0.00446429 </v>
   <v>       0.00446429 </v>
   <v>       0.00446429 </v>
   <v>       0.00446429 </v>
   <v>       0.00446429 </v>
   <v>       0.00446429 </v>
   <v>       0.00446429 </v>
   <v>       0.00446429 </v>
   <v>       0.00446429 </v>
   <v>       0.00446429 </v>
   <v>       0.00446429 </v>
   <v>       0.00446429 </v>
   <v>       0.00446429 </v>
   <v>       0.00446429 </v>
   <v>       0.00446429 </v>
   <v>       0.00446429 </v>
   <v>       0.00446429 </v>
   <v>       0.00446429 </v>
   <v>       0.00446429 </v>
   <v>       0.00446429 </v>
   <v>       0.00446429 </v>
   <v>       0.00446429 </v>
   <v>       0.00446429 </v>
   <v>       0.00446429 </v>
   <v>       0.00446429 </v>
   <v>       0.00446429 </v>
   <v>       0.00446429 </v>
   <v>       0.00446429 </v>
   <v>       0.00446429 </v>
   <v>       0.00446429 </v>
   <v>       0.00446429 </v>
   <v>       0.00446429 </v>
   <v>       0.00446429 </v>
   <v>       0.00446429 </v>
   <v>       0.00446429 </v>
   <v>       0.00446429 </v>
   <v>       0.00446429 </v>
   <v>       0.00446429 </v>
   <v>       0.00446429 </v>
   <v>       0.00446429 </v>
   <v>       0.00446429 </v>
   <v>       0.00446429 </v>
   <v>       0.00446429 </v>
   <v>       0.00446429 </v>
   <v>       0.00446429 </v>
   <v>       0.00446429 </v>
   <v>       0.00446429 </v>
   <v>       0.00446429 </v>
   <v>       0.00446429 </v>
   <v>       0.00446429 </v>
  </varray>
 </kpoints>
 <parameters>
  <separator name="general" >
   <i type="string" name="SYSTEM">SnSe</i>
   <i type="logical" name="LCOMPAT"> F  </i>
  </separator>
  <separator name="electronic" >
   <i type="string" name="PREC">accura</i>
   <i name="ENMAX">    600.00000000</i>
   <i name="ENAUG">    446.84200000</i>
   <i name="EDIFF">      0.00000010</i>
   <i type="int" name="IALGO">    58</i>
   <i type="int" name="IWAVPR">    10</i>
   <i type="int" name="NBANDS">    96</i>
   <i name="NELECT">     80.00000000</i>
   <i type="int" name="TURBO">     0</i>
   <i type="int" name="IRESTART">     0</i>
   <i type="int" name="NREBOOT">     0</i>
   <i type="int" name="NMIN">     0</i>
   <i name="EREF">      0.00000000</i>
   <separator name="electronic smearing" >
    <i type="int" name="ISMEAR">     0</i>
    <i name="SIGMA">      0.01000000</i>
    <i name="KSPACING">      0.50000000</i>
    <i type="logical" name="KGAMMA"> T  </i>
   </separator>
   <separator name="electronic projectors" >
    <i type="logical" name="LREAL"> F  </i>
    <v name="ROPT">      0.00000000      0.00000000</v>
    <i type="int" name="LMAXPAW">  -100</i>
    <i type="int" name="LMAXMIX">     4</i>
    <i type="logical" name="NLSPLINE"> F  </i>
   </separator>
   <separator name="electronic startup" >
    <i type="int" name="ISTART">     0</i>
    <i type="int" name="ICHARG">    11</i>
    <i type="int" name="INIWAV">     1</i>
   </separator>
   <separator name="electronic spin" >
    <i type="int" name="ISPIN">     1</i>
    <i type="logical" name="LNONCOLLINEAR"> F  </i>
    <v name="MAGMOM">      1.00000000      1.00000000      1.00000000      1.00000000      1.00000000      1.00000000      1.00000000      1.00000000</v>
    <i name="NUPDOWN">     -1.00000000</i>
    <i type="logical" name="LSORBIT"> F  </i>
    <v name="SAXIS">      0.00000000      0.00000000      1.00000000</v>
    <i type="logical" name="LSPIRAL"> F  </i>
    <v name="QSPIRAL">      0.00000000      0.00000000      0.00000000</v>
    <i type="logical" name="LZEROZ"> F  </i>
   </separator>
   <separator name="electronic exchange-correlation" >
    <i type="logical" name="LASPH"> F  </i>
    <i type="logical" name="LMETAGGA"> F  </i>
   </separator>
   <separator name="electronic convergence" >
    <i type="int" name="NELM">    60</i>
    <i type="int" name="NELMDL">     0</i>
    <i type="int" name="NELMIN">     2</i>
    <i name="ENINI">    600.00000000</i>
    <separator name="electronic convergence detail" >
     <i type="logical" name="LDIAG"> T  </i>
     <i type="logical" name="LSUBROT"> F  </i>
     <i name="WEIMIN">      0.00000000</i>
     <i name="EBREAK">      0.00000000</i>
     <i name="DEPER">      0.30000000</i>
     <i type="int" name="NRMM">     4</i>
     <i name="TIME">      0.40000000</i>
    </separator>
   </separator>
   <separator name="electronic mixer" >
    <i name="AMIX">      0.40000000</i>
    <i name="BMIX">      1.00000000</i>
    <i name="AMIN">      0.10000000</i>
    <i name="AMIX_MAG">      1.60000000</i>
    <i name="BMIX_MAG">      1.00000000</i>
    <separator name="electronic mixer details" >
     <i type="int" name="IMIX">     4</i>
     <i type="logical" name="MIXFIRST"> F  </i>
     <i type="int" name="MAXMIX">   -45</i>
     <i name="WC">    100.00000000</i>
     <i type="int" name="INIMIX">     1</i>
     <i type="int" name="MIXPRE">     1</i>
     <i type="int" name="MREMOVE">     5</i>
    </separator>
   </separator>
   <separator name="electronic dipolcorrection" >
    <i type="logical" name="LDIPOL"> F  </i>
    <i type="logical" name="LMONO"> F  </i>
    <i type="int" name="IDIPOL">     0</i>
    <i name="EPSILON">      1.00000000</i>
    <v name="DIPOL">   -100.00000000   -100.00000000   -100.00000000</v>
    <i name="EFIELD">      0.00000000</i>
   </separator>
  </separator>
  <separator name="grids" >
   <i type="int" name="NGX">    36</i>
   <i type="int" name="NGY">    36</i>
   <i type="int" name="NGZ">    96</i>
   <i type="int" name="NGXF">    72</i>
   <i type="int" name="NGYF">    72</i>
   <i type="int" name="NGZF">   192</i>
   <i type="logical" name="ADDGRID"> T  </i>
  </separator>
  <separator name="ionic" >
   <i type="int" name="NSW">     0</i>
   <i type="int" name="IBRION">    -1</i>
   <i type="int" name="MDALGO">     0</i>
   <i type="int" name="ISIF">     2</i>
   <i name="PSTRESS">      0.00000000</i>
   <i name="EDIFFG">     -0.00100000</i>
   <i type="int" name="NFREE">     0</i>
   <i name="POTIM">      0.50000000</i>
   <i name="SMASS">     -3.00000000</i>
   <i name="SCALEE">      1.00000000</i>
  </separator>
  <separator name="ionic md" >
   <i name="TEBEG">      0.00010000</i>
   <i name="TEEND">      0.00010000</i>
   <i type="int" name="NBLOCK">     1</i>
   <i type="int" name="KBLOCK">     1</i>
   <i type="int" name="NPACO">   256</i>
   <i name="APACO">     16.00000000</i>
  </separator>
  <separator name="symmetry" >
   <i type="int" name="ISYM">     2</i>
   <i name="SYMPREC">      0.00001000</i>
  </separator>
  <separator name="dos" >
   <i type="int" name="LORBIT">     0</i>
   <v name="RWIGS">     -1.00000000     -1.00000000</v>
   <i type="int" name="NEDOS">   301</i>
   <i name="EMIN">     10.00000000</i>
   <i name="EMAX">    -10.00000000</i>
   <i name="EFERMI">      0.00000000</i>
  </separator>
  <separator name="writing" >
   <i type="int" name="NWRITE">     2</i>
   <i type="logical" name="LWAVE"> F  </i>
   <i type="logical" name="LDOWNSAMPLE"> F  </i>
   <i type="logical" name="LCHARG"> F  </i>
   <i type="logical" name="LPARD"> F  </i>
   <i type="logical" name="LVTOT"> F  </i>
   <i type="logical" name="LVHAR"> F  </i>
   <i type="logical" name="LELF"> F  </i>
   <i type="logical" name="LOPTICS"> F  </i>
   <v name="STM">      0.00000000      0.00000000      0.00000000      0.00000000      0.00000000      0.00000000      0.00000000</v>
  </separator>
  <separator name="performance" >
   <i type="int" name="NPAR">     4</i>
   <i type="int" name="NSIM">     4</i>
   <i type="int" name="NBLK">    -1</i>
   <i type="logical" name="LPLANE"> T  </i>
   <i type="logical" name="LSCALAPACK"> T  </i>
   <i type="logical" name="LSCAAWARE"> F  </i>
   <i type="logical" name="LSCALU"> F  </i>
   <i type="logical" name="LASYNC"> F  </i>
   <i type="logical" name="LORBITALREAL"> F  </i>
  </separator>
  <separator name="miscellaneous" >
   <i type="int" name="IDIOT">     3</i>
   <i type="int" name="ISPECIAL">     0</i>
   <i type="logical" name="LMUSIC"> F  </i>
   <v name="POMASS">    118.71000000     78.96000000</v>
   <v name="DARWINR">      0.00000000      0.00000000</v>
   <v name="DARWINV">      1.00000000      1.00000000</v>
   <i type="logical" name="LCORR"> T  </i>
  </separator>
  <i type="logical" name="GGA_COMPAT"> T  </i>
  <i type="logical" name="LBERRY"> F  </i>
  <i type="int" name="ICORELEVEL">     0</i>
  <i type="logical" name="LDAU"> F  </i>
  <i type="int" name="I_CONSTRAINED_M">     0</i>
  <separator name="electronic exchange-correlation" >
   <i type="string" name="GGA">--</i>
   <i type="int" name="VOSKOWN">     0</i>
   <i type="logical" name="LHFCALC"> F  </i>
   <i type="string" name="PRECFOCK"></i>
   <i type="logical" name="LSYMGRAD"> F  </i>
   <i type="logical" name="LHFONE"> F  </i>
   <i type="logical" name="LRHFCALC"> F  </i>
   <i type="logical" name="LTHOMAS"> F  </i>
   <i type="logical" name="LMODELHF"> F  </i>
   <i name="ENCUT4O">     -1.00000000</i>
   <i type="int" name="EXXOEP">     0</i>
   <i type="int" name="FOURORBIT">     0</i>
   <i name="AEXX">      0.00000000</i>
   <i name="HFALPHA">      0.00000000</i>
   <i name="MCALPHA">      0.00000000</i>
   <i name="ALDAX">      1.00000000</i>
   <i name="AGGAX">      1.00000000</i>
   <i name="ALDAC">      1.00000000</i>
   <i name="AGGAC">      1.00000000</i>
   <i type="int" name="NKREDX">     1</i>
   <i type="int" name="NKREDY">     1</i>
   <i type="int" name="NKREDZ">     1</i>
   <i type="logical" name="SHIFTRED"> F  </i>
   <i type="logical" name="ODDONLY"> F  </i>
   <i type="logical" name="EVENONLY"> F  </i>
   <i type="int" name="LMAXFOCK">     0</i>
   <i type="int" name="NMAXFOCKAE">     0</i>
   <i type="logical" name="LFOCKAEDFT"> F  </i>
   <i name="HFSCREEN">      0.00000000</i>
   <i name="HFSCREENC">      0.00000000</i>
   <i type="int" name="NBANDSGWLOW">     0</i>
  </separator>
  <separator name="vdW DFT" >
   <i type="logical" name="LUSE_VDW"> F  </i>
   <i name="Zab_VDW">     -0.84910000</i>
   <i name="PARAM1">      0.12340000</i>
   <i name="PARAM2">      1.00000000</i>
   <i name="PARAM3">      0.00000000</i>
  </separator>
  <separator name="model GW" >
   <i type="int" name="MODEL_GW">     0</i>
   <i name="MODEL_EPS0">     16.51724287</i>
   <i name="MODEL_ALPHA">      1.00000000</i>
  </separator>
  <separator name="linear response parameters" >
   <i type="logical" name="LEPSILON"> F  </i>
   <i type="logical" name="LRPA"> F  </i>
   <i type="logical" name="LNABLA"> F  </i>
   <i type="logical" name="LVEL"> F  </i>
   <i type="int" name="KINTER">     0</i>
   <i name="CSHIFT">      0.10000000</i>
   <i name="OMEGAMAX">     -1.00000000</i>
   <i name="DEG_THRESHOLD">      0.00200000</i>
   <i name="RTIME">     -0.10000000</i>
   <i name="WPLASMAI">      0.00000000</i>
   <v name="DFIELD">      0.00000000      0.00000000      0.00000000</v>
   <v name="WPLASMA">      0.00000000      0.00000000      0.00000000      0.00000000      0.00000000      0.00000000      0.00000000      0.00000000      0.00000000</v>
  </separator>
  <separator name="orbital magnetization" >
   <i type="logical" name="NUCIND"> F  </i>
   <v name="MAGPOS">      0.00000000      0.00000000      0.00000000</v>
   <i type="logical" name="LNICSALL"> T  </i>
   <i type="logical" name="ORBITALMAG"> F  </i>
   <i type="logical" name="LMAGBLOCH"> F  </i>
   <i type="logical" name="LCHIMAG"> F  </i>
   <i type="logical" name="LGAUGE"> T  </i>
   <i type="int" name="MAGATOM">     0</i>
   <v name="MAGDIPOL">      0.00000000      0.00000000      0.00000000</v>
   <v name="AVECCONST">      0.00000000      0.00000000      0.00000000</v>
  </separator>
  <separator name="response functions" >
   <i type="logical" name="LADDER"> F  </i>
   <i type="logical" name="LRPAFORCE"> F  </i>
   <i type="logical" name="LFXC"> F  </i>
   <i type="logical" name="LHARTREE"> T  </i>
   <i type="int" name="IBSE">     0</i>
   <v type="int" name="KPOINT">    -1     0     0     0</v>
   <i type="logical" name="LTCTE"> F  </i>
   <i type="logical" name="LTETE"> F  </i>
   <i type="logical" name="LTRIPLET"> F  </i>
   <i type="logical" name="LFXCEPS"> F  </i>
   <i type="logical" name="LFXHEG"> F  </i>
   <i type="int" name="NATURALO">     2</i>
   <i type="logical" name="L2ORDER"> F  </i>
   <i type="logical" name="LMP2LT"> F  </i>
   <i type="logical" name="LUSEW"> F  </i>
   <i name="ENCUTGW">     -2.00000000</i>
   <i name="ENCUTGWSOFT">     -2.00000000</i>
   <i name="ENCUTLF">     -1.00000000</i>
   <i type="int" name="LMAXMP2">    -1</i>
   <i name="SCISSOR">      0.00000000</i>
   <i type="int" name="NOMEGA">     0</i>
   <i type="int" name="NOMEGAR">     0</i>
   <i type="int" name="NBANDSGW">    -1</i>
   <i type="int" name="NBANDSO">    -1</i>
   <i type="int" name="NBANDSV">    -1</i>
   <i type="int" name="NELM">     1</i>
   <i type="int" name="NELMHF">     1</i>
   <i type="int" name="DIM">     3</i>
   <i type="int" name="ANTIRES">     0</i>
   <i name="OMEGAMAX">    -30.00000000</i>
   <i name="OMEGAMIN">    -30.00000000</i>
   <i name="OMEGATL">   -200.00000000</i>
   <i type="int" name="OMEGAGRID">   140</i>
   <i name="CSHIFT">     -0.10000000</i>
   <i type="logical" name="SELFENERGY"> F  </i>
   <i type="logical" name="LSPECTRAL"> F  </i>
   <i type="logical" name="LSPECTRALGW"> F  </i>
   <i type="logical" name="LSINGLES"> F  </i>
   <i type="logical" name="LFERMIGW"> F  </i>
   <i type="logical" name="ODDONLYGW"> F  </i>
   <i type="logical" name="EVENONLYGW"> F  </i>
   <i type="int" name="NKREDLFX">     1</i>
   <i type="int" name="NKREDLFY">     1</i>
   <i type="int" name="NKREDLFZ">     1</i>
   <i type="int" name="MAXMEM">  2800</i>
   <i type="int" name="TELESCOPE">     0</i>
   <i type="int" name="TAUPAR">     1</i>
   <i type="int" name="OMEGAPAR">    -1</i>
   <i name="LAMBDA">      1.00000000</i>
  </separator>
  <separator name="External order field" >
   <i name="OFIELD_KAPPA">      0.00000000</i>
   <v name="OFIELD_K">      0.00000000      0.00000000      0.00000000</v>
   <i name="OFIELD_Q6_NEAR">      0.00000000</i>
   <i name="OFIELD_Q6_FAR">      0.00000000</i>
   <i name="OFIELD_A">      0.00000000</i>
  </separator>
 </parameters>
 <atominfo>
  <atoms>       8 </atoms>
  <types>       2 </types>
  <array name="atoms" >
   <dimension dim="1">ion</dimension>
   <field type="string">element</field>
   <field type="int">atomtype</field>
   <set>
    <rc><c>Sn</c><c>   1</c></rc>
    <rc><c>Sn</c><c>   1</c></rc>
    <rc><c>Sn</c><c>   1</c></rc>
    <rc><c>Sn</c><c>   1</c></rc>
    <rc><c>Se</c><c>   2</c></rc>
    <rc><c>Se</c><c>   2</c></rc>
    <rc><c>Se</c><c>   2</c></rc>
    <rc><c>Se</c><c>   2</c></rc>
   </set>
  </array>
  <array name="atomtypes" >
   <dimension dim="1">type</dimension>
   <field type="int">atomspertype</field>
   <field type="string">element</field>
   <field>mass</field>
   <field>valence</field>
   <field type="string">pseudopotential</field>
   <set>
    <rc><c>   4</c><c>Sn</c><c>    118.71000000</c><c>     14.00000000</c><c>  PAW_PBE Sn_d 06Sep2000                </c></rc>
    <rc><c>   4</c><c>Se</c><c>     78.96000000</c><c>      6.00000000</c><c>  PAW_PBE Se 06Sep2000                  </c></rc>
   </set>
  </array>
 </atominfo>
 <structure name="initialpos" >
  <crystal>
   <varray name="basis" >
    <v>       4.17214183       0.00000000       0.00000000 </v>
    <v>       0.00000000       4.55520807       0.00000000 </v>
    <v>       0.00000000       0.00000000      11.58801393 </v>
   </varray>
   <i name="volume">    220.22990499 </i>
   <varray name="rec_basis" >
    <v>       0.23968504       0.00000000       0.00000000 </v>
    <v>       0.00000000       0.21952894       0.00000000 </v>
    <v>       0.00000000       0.00000000       0.08629606 </v>
   </varray>
  </crystal>
  <varray name="positions" >
   <v>       0.25000000       0.11313331       0.11695741 </v>
   <v>       0.75000000       0.88686669       0.88304259 </v>
   <v>       0.75000000       0.61313331       0.38304259 </v>
   <v>       0.25000000       0.38686669       0.61695741 </v>
   <v>       0.75000000       0.51830297       0.14525948 </v>
   <v>       0.25000000       0.48169703       0.85474052 </v>
   <v>       0.25000000       0.01830297       0.35474052 </v>
   <v>       0.75000000       0.98169703       0.64525948 </v>
  </varray>
 </structure>
 <calculation>
  <scstep>
   <time name="total">   56.47   56.77</time>
   <energy>
    <i name="alphaZ">    200.67770252 </i>
    <i name="ewald">  -5906.36127324 </i>
    <i name="hartreedc">  -2405.93000947 </i>
    <i name="XCdc">    225.00475253 </i>
    <i name="pawpsdc">   8367.25946354 </i>
    <i name="pawaedc">  -8461.13026213 </i>
    <i name="eentropy">     -0.00016988 </i>
    <i name="bandstr">    337.17178504 </i>
    <i name="atom">   8600.94477988 </i>
    <i name="e_fr_energy">    957.63676880 </i>
    <i name="e_wo_entrp">    957.63693867 </i>
    <i name="e_0_energy">    957.63685374 </i>
   </energy>
  </scstep>
  <scstep>
   <time name="total">   49.01   49.59</time>
   <energy>
    <i name="e_fr_energy">    167.61897291 </i>
    <i name="e_wo_entrp">    167.61911298 </i>
    <i name="e_0_energy">    167.61904295 </i>
   </energy>
  </scstep>
  <scstep>
   <time name="total">   52.50   53.44</time>
   <energy>
    <i name="e_fr_energy">    -18.84681389 </i>
    <i name="e_wo_entrp">    -18.84681389 </i>
    <i name="e_0_energy">    -18.84681389 </i>
   </energy>
  </scstep>
  <scstep>
   <time name="total">   55.80   56.13</time>
   <energy>
    <i name="e_fr_energy">    -32.23959606 </i>
    <i name="e_wo_entrp">    -32.23959606 </i>
    <i name="e_0_energy">    -32.23959606 </i>
   </energy>
  </scstep>
  <scstep>
   <time name="total">   56.22   56.62</time>
   <energy>
    <i name="e_fr_energy">    -32.54329260 </i>
    <i name="e_wo_entrp">    -32.54329260 </i>
    <i name="e_0_energy">    -32.54329260 </i>
   </energy>
  </scstep>
  <scstep>
   <time name="total">   33.68   34.51</time>
   <energy>
    <i name="e_fr_energy">    -32.54329260 </i>
    <i name="e_wo_entrp">    -32.54329260 </i>
    <i name="e_0_energy">    -32.54329260 </i>
   </energy>
  </scstep>
  <scstep>
   <time name="total">   33.80   34.21</time>
   <energy>
    <i name="e_fr_energy">    -32.55090546 </i>
    <i name="e_wo_entrp">    -32.55090546 </i>
    <i name="e_0_energy">    -32.55090546 </i>
   </energy>
  </scstep>
  <scstep>
   <time name="total">   33.20   33.48</time>
   <energy>
    <i name="e_fr_energy">    -32.55320700 </i>
    <i name="e_wo_entrp">    -32.55320700 </i>
    <i name="e_0_energy">    -32.55320700 </i>
   </energy>
  </scstep>
  <scstep>
   <time name="total">   33.27   33.60</time>
   <energy>
    <i name="e_fr_energy">    -32.55398141 </i>
    <i name="e_wo_entrp">    -32.55398141 </i>
    <i name="e_0_energy">    -32.55398141 </i>
   </energy>
  </scstep>
  <scstep>
   <time name="total">   33.49   33.75</time>
   <energy>
    <i name="e_fr_energy">    -32.55410091 </i>
    <i name="e_wo_entrp">    -32.55410091 </i>
    <i name="e_0_energy">    -32.55410091 </i>
   </energy>
  </scstep>
  <scstep>
   <time name="total">   33.27   33.71</time>
   <energy>
    <i name="e_fr_energy">    -32.55413746 </i>
    <i name="e_wo_entrp">    -32.55413746 </i>
    <i name="e_0_energy">    -32.55413746 </i>
   </energy>
  </scstep>
  <scstep>
   <time name="total">   33.42   33.72</time>
   <energy>
    <i name="e_fr_energy">    -32.55414562 </i>
    <i name="e_wo_entrp">    -32.55414562 </i>
    <i name="e_0_energy">    -32.55414562 </i>
   </energy>
  </scstep>
  <scstep>
   <time name="total">   33.28   33.58</time>
   <energy>
    <i name="e_fr_energy">    -32.55414706 </i>
    <i name="e_wo_entrp">    -32.55414706 </i>
    <i name="e_0_energy">    -32.55414706 </i>
   </energy>
  </scstep>
  <scstep>
   <time name="total">   33.50   34.40</time>
   <energy>
    <i name="e_fr_energy">    -32.55414738 </i>
    <i name="e_wo_entrp">    -32.55414738 </i>
    <i name="e_0_energy">    -32.55414738 </i>
   </energy>
  </scstep>
  <scstep>
   <time name="total">   33.78   34.16</time>
   <energy>
    <i name="e_fr_energy">    -32.55414748 </i>
    <i name="e_wo_entrp">    -32.55414748 </i>
    <i name="e_0_energy">    -32.55414748 </i>
   </energy>
  </scstep>
  <scstep>
   <time name="total">   40.93   41.37</time>
   <energy>
    <i name="alphaZ">    200.67770252 </i>
    <i name="ewald">  -5906.36127324 </i>
    <i name="hartreedc">  -2405.93000947 </i>
    <i name="XCdc">    225.00475253 </i>
    <i name="pawpsdc">   8367.25946354 </i>
    <i name="pawaedc">  -8461.13026213 </i>
    <i name="eentropy">     -0.00000000 </i>
    <i name="bandstr">   -653.01930114 </i>
    <i name="atom">   8600.94477988 </i>
    <i name="e_fr_energy">    -32.55414751 </i>
    <i name="e_wo_entrp">    -32.55414751 </i>
    <i name="e_0_energy">    -32.55414751 </i>
   </energy>
  </scstep>
  <structure>
   <crystal>
    <varray name="basis" >
     <v>       4.17214183       0.00000000       0.00000000 </v>
     <v>       0.00000000       4.55520807       0.00000000 </v>
     <v>       0.00000000       0.00000000      11.58801393 </v>
    </varray>
    <i name="volume">    220.22990499 </i>
    <varray name="rec_basis" >
     <v>       0.23968504       0.00000000       0.00000000 </v>
     <v>       0.00000000       0.21952894       0.00000000 </v>
     <v>       0.00000000       0.00000000       0.08629606 </v>
    </varray>
   </crystal>
   <varray name="positions" >
    <v>       0.25000000       0.11313331       0.11695741 </v>
    <v>       0.75000000       0.88686669       0.88304259 </v>
    <v>       0.75000000       0.61313331       0.38304259 </v>
    <v>       0.25000000       0.38686669       0.61695741 </v>
    <v>       0.75000000       0.51830297       0.14525948 </v>
    <v>       0.25000000       0.48169703       0.85474052 </v>
    <v>       0.25000000       0.01830297       0.35474052 </v>
    <v>       0.75000000       0.98169703       0.64525948 </v>
   </varray>
  </structure>
  <varray name="forces" >
   <v>      -0.00000000       0.11371567       0.07150113 </v>
   <v>       0.00000000      -0.11371567      -0.07150113 </v>
   <v>       0.00000000       0.11371567      -0.07150113 </v>
   <v>       0.00000000      -0.11371567       0.07150113 </v>
   <v>       0.00000000      -0.13823725       0.07126333 </v>
   <v>       0.00000000       0.13823725      -0.07126333 </v>
   <v>       0.00000000      -0.13823725      -0.07126333 </v>
   <v>       0.00000000       0.13823725       0.07126333 </v>
  </varray>
  <varray name="stress" >
   <v>       8.96908576      -0.00000000       0.00000000 </v>
   <v>      -0.00000000      -1.55875384       0.00000000 </v>
   <v>       0.00000000       0.00000000     -17.45062063 </v>
  </varray>
  <energy>
   <i name="e_fr_energy">    -34.31249807 </i>
   <i name="e_wo_entrp">    -34.31249807 </i>
   <i name="e_0_energy">     -0.00000000 </i>
  </energy>
  <time name="totalsc">  699.37  707.30</time>
  <eigenvalues>
   <array>
    <dimension dim="1">band</dimension>
    <dimension dim="2">kpoint</dimension>
    <dimension dim="3">spin</dimension>
    <field>eigene</field>
    <field>occ</field>
    <set>
     <set comment="spin 1">
      <set comment="kpoint 1">
       <r>  -16.2247    1.0000 </r>
       <r>  -16.2131    1.0000 </r>
       <r>  -16.2112    1.0000 </r>
       <r>  -16.2072    1.0000 </r>
       <r>  -16.2066    1.0000 </r>
       <r>  -16.2043    1.0000 </r>
       <r>  -16.2015    1.0000 </r>
       <r>  -16.1989    1.0000 </r>
       <r>  -16.1909    1.0000 </r>
       <r>  -16.1901    1.0000 </r>
       <r>  -16.1876    1.0000 </r>
       <r>  -16.1848    1.0000 </r>
       <r>  -16.1780    1.0000 </r>
       <r>  -16.1751    1.0000 </r>
       <r>  -16.1562    1.0000 </r>
       <r>  -16.1526    1.0000 </r>
       <r>  -16.1488    1.0000 </r>
       <r>  -16.1463    1.0000 </r>
       <r>  -16.1405    1.0000 </r>
       <r>  -16.1338    1.0000 </r>
       <r>   -8.4910    1.0000 </r>
       <r>   -8.1668    1.0000 </r>
       <r>   -7.5324    1.0000 </r>
       <r>   -7.0878    1.0000 </r>
       <r>   -2.0395    1.0000 </r>
       <r>   -1.0055    1.0000 </r>
       <r>   -0.4747    1.0000 </r>
       <r>    0.1146    1.0000 </r>
       <r>    0.4586    1.0000 </r>
       <r>    1.8699    1.0000 </r>
       <r>    1.9566    1.0000 </r>
       <r>    1.9581    1.0000 </r>
       <r>    2.2305    1.0000 </r>
       <r>    2.4344    1.0000 </r>
       <r>    2.9820    1.0000 </r>
       <r>    3.3089    1.0000 </r>
       <r>    3.6263    1.0000 </r>
       <r>    4.0549    1.0000 </r>
       <r>    4.3900    1.0000 </r>
       <r>    4.6696    1.0000 </r>
       <r>    5.8820    0.0000 </r>
       <r>    7.7874    0.0000 </r>
       <r>    8.0461    0.0000 </r>
       <r>    8.0482    0.0000 </r>
       <r>    8.2313    0.0000 </r>
       <r>    8.5009    0.0000 </r>
       <r>    8.9897    0.0000 </r>
       <r>    9.5732    0.0000 </r>
       <r>    9.6371    0.0000 </r>
       <r>    9.8415    0.0000 </r>
       <r>   10.4403    0.0000 </r>
       <r>   10.9331    0.0000 </r>
       <r>   11.1231    0.0000 </r>
       <r>   11.1847    0.0000 </r>
       <r>   11.4960    0.0000 </r>
       <r>   12.0861    0.0000 </r>
       <r>   12.1445    0.0000 </r>
       <r>   13.0479    0.0000 </r>
       <r>   13.4817    0.0000 </r>
       <r>   13.6373    0.0000 </r>
       <r>   13.6569    0.0000 </r>
       <r>   13.7137    0.0000 </r>
       <r>   13.9566    0.0000 </r>
       <r>   14.1771    0.0000 </r>
       <r>   14.6247    0.0000 </r>
       <r>   14.7894    0.0000 </r>
       <r>   15.3760    0.0000 </r>
       <r>   15.4812    0.0000 </r>
       <r>   15.6806    0.0000 </r>
       <r>   15.7711    0.0000 </r>
       <r>   15.8267    0.0000 </r>
       <r>   16.0684    0.0000 </r>
       <r>   17.2895    0.0000 </r>
       <r>   17.4302    0.0000 </r>
       <r>   17.6009    0.0000 </r>
       <r>   17.8362    0.0000 </r>
       <r>   18.8227    0.0000 </r>
       <r>   19.3015    0.0000 </r>
       <r>   20.3204    0.0000 </r>
       <r>   20.6012    0.0000 </r>
       <r>   20.9946    0.0000 </r>
       <r>   21.1135    0.0000 </r>
       <r>   21.1477    0.0000 </r>
       <r>   21.4499    0.0000 </r>
       <r>   21.5116    0.0000 </r>
       <r>   21.7026    0.0000 </r>
       <r>   22.1894    0.0000 </r>
       <r>   22.2693    0.0000 </r>
       <r>   22.8103    0.0000 </r>
       <r>   22.9270    0.0000 </r>
       <r>   23.1960    0.0000 </r>
       <r>   23.4210    0.0000 </r>
       <r>   23.4657    0.0000 </r>
       <r>   23.4805    0.0000 </r>
       <r>   23.5931    0.0000 </r>
       <r>   24.5644    0.0000 </r>
      </set>
      <set comment="kpoint 2">
       <r>  -16.2246    1.0000 </r>
       <r>  -16.2131    1.0000 </r>
       <r>  -16.2112    1.0000 </r>
       <r>  -16.2073    1.0000 </r>
       <r>  -16.2066    1.0000 </r>
       <r>  -16.2044    1.0000 </r>
       <r>  -16.2016    1.0000 </r>
       <r>  -16.1989    1.0000 </r>
       <r>  -16.1910    1.0000 </r>
       <r>  -16.1901    1.0000 </r>
       <r>  -16.1875    1.0000 </r>
       <r>  -16.1848    1.0000 </r>
       <r>  -16.1779    1.0000 </r>
       <r>  -16.1752    1.0000 </r>
       <r>  -16.1561    1.0000 </r>
       <r>  -16.1526    1.0000 </r>
       <r>  -16.1488    1.0000 </r>
       <r>  -16.1464    1.0000 </r>
       <r>  -16.1405    1.0000 </r>
       <r>  -16.1339    1.0000 </r>
       <r>   -8.4885    1.0000 </r>
       <r>   -8.1646    1.0000 </r>
       <r>   -7.5312    1.0000 </r>
       <r>   -7.0876    1.0000 </r>
       <r>   -2.0425    1.0000 </r>
       <r>   -1.0120    1.0000 </r>
       <r>   -0.4768    1.0000 </r>
       <r>    0.1008    1.0000 </r>
       <r>    0.4585    1.0000 </r>
       <r>    1.8731    1.0000 </r>
       <r>    1.9174    1.0000 </r>
       <r>    2.0011    1.0000 </r>
       <r>    2.2331    1.0000 </r>
       <r>    2.4312    1.0000 </r>
       <r>    2.9877    1.0000 </r>
       <r>    3.3104    1.0000 </r>
       <r>    3.6231    1.0000 </r>
       <r>    4.0620    1.0000 </r>
       <r>    4.3907    1.0000 </r>
       <r>    4.6680    1.0000 </r>
       <r>    5.8860    0.0000 </r>
       <r>    7.7937    0.0000 </r>
       <r>    8.0547    0.0000 </r>
       <r>    8.0593    0.0000 </r>
       <r>    8.1969    0.0000 </r>
       <r>    8.4966    0.0000 </r>
       <r>    8.9899    0.0000 </r>
       <r>    9.5503    0.0000 </r>
       <r>    9.6087    0.0000 </r>
       <r>    9.8530    0.0000 </r>
       <r>   10.4443    0.0000 </r>
       <r>   10.9142    0.0000 </r>
       <r>   11.1255    0.0000 </r>
       <r>   11.1926    0.0000 </r>
       <r>   11.4719    0.0000 </r>
       <r>   12.0592    0.0000 </r>
       <r>   12.1251    0.0000 </r>
       <r>   13.0608    0.0000 </r>
       <r>   13.4742    0.0000 </r>
       <r>   13.5673    0.0000 </r>
       <r>   13.7477    0.0000 </r>
       <r>   13.7564    0.0000 </r>
       <r>   13.9844    0.0000 </r>
       <r>   14.2088    0.0000 </r>
       <r>   14.6411    0.0000 </r>
       <r>   14.8001    0.0000 </r>
       <r>   15.3142    0.0000 </r>
       <r>   15.4967    0.0000 </r>
       <r>   15.6397    0.0000 </r>
       <r>   15.8503    0.0000 </r>
       <r>   15.8612    0.0000 </r>
       <r>   16.1329    0.0000 </r>
       <r>   17.1680    0.0000 </r>
       <r>   17.4622    0.0000 </r>
       <r>   17.5292    0.0000 </r>
       <r>   17.9730    0.0000 </r>
       <r>   18.8889    0.0000 </r>
       <r>   19.2639    0.0000 </r>
       <r>   20.3566    0.0000 </r>
       <r>   20.5677    0.0000 </r>
       <r>   20.9375    0.0000 </r>
       <r>   21.0887    0.0000 </r>
       <r>   21.1290    0.0000 </r>
       <r>   21.4671    0.0000 </r>
       <r>   21.4755    0.0000 </r>
       <r>   21.7205    0.0000 </r>
       <r>   22.2053    0.0000 </r>
       <r>   22.2779    0.0000 </r>
       <r>   22.8525    0.0000 </r>
       <r>   22.9439    0.0000 </r>
       <r>   23.2082    0.0000 </r>
       <r>   23.2557    0.0000 </r>
       <r>   23.5313    0.0000 </r>
       <r>   23.5877    0.0000 </r>
       <r>   23.6773    0.0000 </r>
       <r>   24.6107    0.0000 </r>
      </set>
      <set comment="kpoint 3">
       <r>  -16.2243    1.0000 </r>
       <r>  -16.2129    1.0000 </r>
       <r>  -16.2109    1.0000 </r>
       <r>  -16.2074    1.0000 </r>
       <r>  -16.2064    1.0000 </r>
       <r>  -16.2045    1.0000 </r>
       <r>  -16.2018    1.0000 </r>
       <r>  -16.1990    1.0000 </r>
       <r>  -16.1912    1.0000 </r>
       <r>  -16.1900    1.0000 </r>
       <r>  -16.1872    1.0000 </r>
       <r>  -16.1851    1.0000 </r>
       <r>  -16.1777    1.0000 </r>
       <r>  -16.1752    1.0000 </r>
       <r>  -16.1560    1.0000 </r>
       <r>  -16.1527    1.0000 </r>
       <r>  -16.1487    1.0000 </r>
       <r>  -16.1465    1.0000 </r>
       <r>  -16.1405    1.0000 </r>
       <r>  -16.1339    1.0000 </r>
       <r>   -8.4810    1.0000 </r>
       <r>   -8.1582    1.0000 </r>
       <r>   -7.5273    1.0000 </r>
       <r>   -7.0868    1.0000 </r>
       <r>   -2.0517    1.0000 </r>
       <r>   -1.0314    1.0000 </r>
       <r>   -0.4833    1.0000 </r>
       <r>    0.0601    1.0000 </r>
       <r>    0.4584    1.0000 </r>
       <r>    1.8823    1.0000 </r>
       <r>    1.8828    1.0000 </r>
       <r>    2.0476    1.0000 </r>
       <r>    2.2409    1.0000 </r>
       <r>    2.4219    1.0000 </r>
       <r>    3.0043    1.0000 </r>
       <r>    3.3151    1.0000 </r>
       <r>    3.6139    1.0000 </r>
       <r>    4.0831    1.0000 </r>
       <r>    4.3927    1.0000 </r>
       <r>    4.6630    1.0000 </r>
       <r>    5.8977    0.0000 </r>
       <r>    7.8112    0.0000 </r>
       <r>    8.0795    0.0000 </r>
       <r>    8.0916    0.0000 </r>
       <r>    8.0985    0.0000 </r>
       <r>    8.4843    0.0000 </r>
       <r>    8.9897    0.0000 </r>
       <r>    9.4867    0.0000 </r>
       <r>    9.5307    0.0000 </r>
       <r>    9.8819    0.0000 </r>
       <r>   10.4494    0.0000 </r>
       <r>   10.8603    0.0000 </r>
       <r>   11.1283    0.0000 </r>
       <r>   11.2164    0.0000 </r>
       <r>   11.4021    0.0000 </r>
       <r>   11.9924    0.0000 </r>
       <r>   12.0718    0.0000 </r>
       <r>   13.0978    0.0000 </r>
       <r>   13.4563    0.0000 </r>
       <r>   13.5140    0.0000 </r>
       <r>   13.8616    0.0000 </r>
       <r>   13.8688    0.0000 </r>
       <r>   14.0675    0.0000 </r>
       <r>   14.2867    0.0000 </r>
       <r>   14.6900    0.0000 </r>
       <r>   14.8343    0.0000 </r>
       <r>   15.2121    0.0000 </r>
       <r>   15.5464    0.0000 </r>
       <r>   15.5678    0.0000 </r>
       <r>   15.9595    0.0000 </r>
       <r>   16.0149    0.0000 </r>
       <r>   16.2679    0.0000 </r>
       <r>   16.9564    0.0000 </r>
       <r>   17.3523    0.0000 </r>
       <r>   17.5558    0.0000 </r>
       <r>   18.2394    0.0000 </r>
       <r>   18.9886    0.0000 </r>
       <r>   19.2320    0.0000 </r>
       <r>   20.4420    0.0000 </r>
       <r>   20.4667    0.0000 </r>
       <r>   20.7995    0.0000 </r>
       <r>   20.9486    0.0000 </r>
       <r>   21.1569    0.0000 </r>
       <r>   21.3924    0.0000 </r>
       <r>   21.5132    0.0000 </r>
       <r>   21.7764    0.0000 </r>
       <r>   22.0655    0.0000 </r>
       <r>   22.4841    0.0000 </r>
       <r>   22.9025    0.0000 </r>
       <r>   22.9839    0.0000 </r>
       <r>   23.0519    0.0000 </r>
       <r>   23.3966    0.0000 </r>
       <r>   23.5863    0.0000 </r>
       <r>   23.6805    0.0000 </r>
       <r>   23.8909    0.0000 </r>
       <r>   24.5778    0.0000 </r>
      </set>
      <set comment="kpoint 4">
       <r>  -16.2238    1.0000 </r>
       <r>  -16.2127    1.0000 </r>
       <r>  -16.2104    1.0000 </r>
       <r>  -16.2077    1.0000 </r>
       <r>  -16.2061    1.0000 </r>
       <r>  -16.2047    1.0000 </r>
       <r>  -16.2022    1.0000 </r>
       <r>  -16.1993    1.0000 </r>
       <r>  -16.1915    1.0000 </r>
       <r>  -16.1898    1.0000 </r>
       <r>  -16.1869    1.0000 </r>
       <r>  -16.1854    1.0000 </r>
       <r>  -16.1774    1.0000 </r>
       <r>  -16.1753    1.0000 </r>
       <r>  -16.1557    1.0000 </r>
       <r>  -16.1529    1.0000 </r>
       <r>  -16.1485    1.0000 </r>
       <r>  -16.1468    1.0000 </r>
       <r>  -16.1404    1.0000 </r>
       <r>  -16.1340    1.0000 </r>
       <r>   -8.4685    1.0000 </r>
       <r>   -8.1475    1.0000 </r>
       <r>   -7.5211    1.0000 </r>
       <r>   -7.0858    1.0000 </r>
       <r>   -2.0667    1.0000 </r>
       <r>   -1.0631    1.0000 </r>
       <r>   -0.4949    1.0000 </r>
       <r>   -0.0055    1.0000 </r>
       <r>    0.4592    1.0000 </r>
       <r>    1.8531    1.0000 </r>
       <r>    1.8987    1.0000 </r>
       <r>    2.0959    1.0000 </r>
       <r>    2.2538    1.0000 </r>
       <r>    2.4076    1.0000 </r>
       <r>    3.0303    1.0000 </r>
       <r>    3.3228    1.0000 </r>
       <r>    3.5997    1.0000 </r>
       <r>    4.1177    1.0000 </r>
       <r>    4.3959    1.0000 </r>
       <r>    4.6539    1.0000 </r>
       <r>    5.9167    0.0000 </r>
       <r>    7.8358    0.0000 </r>
       <r>    7.9492    0.0000 </r>
       <r>    8.1181    0.0000 </r>
       <r>    8.1423    0.0000 </r>
       <r>    8.4633    0.0000 </r>
       <r>    8.9856    0.0000 </r>
       <r>    9.3969    0.0000 </r>
       <r>    9.4187    0.0000 </r>
       <r>    9.9166    0.0000 </r>
       <r>   10.4408    0.0000 </r>
       <r>   10.7792    0.0000 </r>
       <r>   11.1226    0.0000 </r>
       <r>   11.2558    0.0000 </r>
       <r>   11.2934    0.0000 </r>
       <r>   11.9152    0.0000 </r>
       <r>   11.9956    0.0000 </r>
       <r>   13.1560    0.0000 </r>
       <r>   13.4338    0.0000 </r>
       <r>   13.4889    0.0000 </r>
       <r>   13.9822    0.0000 </r>
       <r>   14.0182    0.0000 </r>
       <r>   14.2022    0.0000 </r>
       <r>   14.3661    0.0000 </r>
       <r>   14.7696    0.0000 </r>
       <r>   14.8996    0.0000 </r>
       <r>   15.1591    0.0000 </r>
       <r>   15.5125    0.0000 </r>
       <r>   15.6354    0.0000 </r>
       <r>   16.1095    0.0000 </r>
       <r>   16.2077    0.0000 </r>
       <r>   16.3747    0.0000 </r>
       <r>   16.8050    0.0000 </r>
       <r>   17.1268    0.0000 </r>
       <r>   17.7044    0.0000 </r>
       <r>   18.5390    0.0000 </r>
       <r>   18.8953    0.0000 </r>
       <r>   19.4098    0.0000 </r>
       <r>   20.3055    0.0000 </r>
       <r>   20.5349    0.0000 </r>
       <r>   20.6223    0.0000 </r>
       <r>   20.7524    0.0000 </r>
       <r>   21.2069    0.0000 </r>
       <r>   21.3473    0.0000 </r>
       <r>   21.4912    0.0000 </r>
       <r>   21.8743    0.0000 </r>
       <r>   21.9483    0.0000 </r>
       <r>   22.7399    0.0000 </r>
       <r>   22.7807    0.0000 </r>
       <r>   22.9227    0.0000 </r>
       <r>   23.2560    0.0000 </r>
       <r>   23.5692    0.0000 </r>
       <r>   23.5818    0.0000 </r>
       <r>   23.9096    0.0000 </r>
       <r>   24.0807    0.0000 </r>
       <r>   24.6699    0.0000 </r>
      </set>
      <set comment="kpoint 5">
       <r>  -16.2231    1.0000 </r>
       <r>  -16.2125    1.0000 </r>
       <r>  -16.2098    1.0000 </r>
       <r>  -16.2079    1.0000 </r>
       <r>  -16.2057    1.0000 </r>
       <r>  -16.2050    1.0000 </r>
       <r>  -16.2026    1.0000 </r>
       <r>  -16.1996    1.0000 </r>
       <r>  -16.1918    1.0000 </r>
       <r>  -16.1897    1.0000 </r>
       <r>  -16.1864    1.0000 </r>
       <r>  -16.1859    1.0000 </r>
       <r>  -16.1769    1.0000 </r>
       <r>  -16.1753    1.0000 </r>
       <r>  -16.1554    1.0000 </r>
       <r>  -16.1532    1.0000 </r>
       <r>  -16.1483    1.0000 </r>
       <r>  -16.1473    1.0000 </r>
       <r>  -16.1403    1.0000 </r>
       <r>  -16.1341    1.0000 </r>
       <r>   -8.4511    1.0000 </r>
       <r>   -8.1326    1.0000 </r>
       <r>   -7.5125    1.0000 </r>
       <r>   -7.0845    1.0000 </r>
       <r>   -2.0876    1.0000 </r>
       <r>   -1.1061    1.0000 </r>
       <r>   -0.5125    1.0000 </r>
       <r>   -0.0931    1.0000 </r>
       <r>    0.4620    1.0000 </r>
       <r>    1.8307    1.0000 </r>
       <r>    1.9211    1.0000 </r>
       <r>    2.1452    1.0000 </r>
       <r>    2.2720    1.0000 </r>
       <r>    2.3900    1.0000 </r>
       <r>    3.0638    1.0000 </r>
       <r>    3.3334    1.0000 </r>
       <r>    3.5822    1.0000 </r>
       <r>    4.1650    1.0000 </r>
       <r>    4.3998    1.0000 </r>
       <r>    4.6397    1.0000 </r>
       <r>    5.9423    0.0000 </r>
       <r>    7.7640    0.0000 </r>
       <r>    7.8605    0.0000 </r>
       <r>    8.1649    0.0000 </r>
       <r>    8.2062    0.0000 </r>
       <r>    8.4305    0.0000 </r>
       <r>    8.9686    0.0000 </r>
       <r>    9.2883    0.0000 </r>
       <r>    9.3049    0.0000 </r>
       <r>    9.9473    0.0000 </r>
       <r>   10.4071    0.0000 </r>
       <r>   10.6814    0.0000 </r>
       <r>   11.0997    0.0000 </r>
       <r>   11.1554    0.0000 </r>
       <r>   11.3090    0.0000 </r>
       <r>   11.8544    0.0000 </r>
       <r>   11.9084    0.0000 </r>
       <r>   13.2333    0.0000 </r>
       <r>   13.4050    0.0000 </r>
       <r>   13.4926    0.0000 </r>
       <r>   14.1030    0.0000 </r>
       <r>   14.1786    0.0000 </r>
       <r>   14.3719    0.0000 </r>
       <r>   14.3974    0.0000 </r>
       <r>   14.8776    0.0000 </r>
       <r>   15.0093    0.0000 </r>
       <r>   15.2108    0.0000 </r>
       <r>   15.4817    0.0000 </r>
       <r>   15.7658    0.0000 </r>
       <r>   16.2996    0.0000 </r>
       <r>   16.3215    0.0000 </r>
       <r>   16.4156    0.0000 </r>
       <r>   16.8622    0.0000 </r>
       <r>   16.8862    0.0000 </r>
       <r>   17.8986    0.0000 </r>
       <r>   18.7229    0.0000 </r>
       <r>   18.8486    0.0000 </r>
       <r>   19.6723    0.0000 </r>
       <r>   20.1035    0.0000 </r>
       <r>   20.4268    0.0000 </r>
       <r>   20.5300    0.0000 </r>
       <r>   20.6055    0.0000 </r>
       <r>   21.2784    0.0000 </r>
       <r>   21.3412    0.0000 </r>
       <r>   21.3587    0.0000 </r>
       <r>   21.9255    0.0000 </r>
       <r>   22.0163    0.0000 </r>
       <r>   22.6112    0.0000 </r>
       <r>   22.9404    0.0000 </r>
       <r>   23.0131    0.0000 </r>
       <r>   23.4996    0.0000 </r>
       <r>   23.5619    0.0000 </r>
       <r>   23.7867    0.0000 </r>
       <r>   24.1601    0.0000 </r>
       <r>   24.3906    0.0000 </r>
       <r>   25.0731    0.0000 </r>
      </set>
      <set comment="kpoint 6">
       <r>  -16.2223    1.0000 </r>
       <r>  -16.2123    1.0000 </r>
       <r>  -16.2091    1.0000 </r>
       <r>  -16.2083    1.0000 </r>
       <r>  -16.2053    1.0000 </r>
       <r>  -16.2052    1.0000 </r>
       <r>  -16.2032    1.0000 </r>
       <r>  -16.2000    1.0000 </r>
       <r>  -16.1921    1.0000 </r>
       <r>  -16.1895    1.0000 </r>
       <r>  -16.1864    1.0000 </r>
       <r>  -16.1858    1.0000 </r>
       <r>  -16.1765    1.0000 </r>
       <r>  -16.1755    1.0000 </r>
       <r>  -16.1550    1.0000 </r>
       <r>  -16.1535    1.0000 </r>
       <r>  -16.1480    1.0000 </r>
       <r>  -16.1478    1.0000 </r>
       <r>  -16.1403    1.0000 </r>
       <r>  -16.1343    1.0000 </r>
       <r>   -8.4288    1.0000 </r>
       <r>   -8.1137    1.0000 </r>
       <r>   -7.5017    1.0000 </r>
       <r>   -7.0832    1.0000 </r>
       <r>   -2.1138    1.0000 </r>
       <r>   -1.1592    1.0000 </r>
       <r>   -0.5374    1.0000 </r>
       <r>   -0.1993    1.0000 </r>
       <r>    0.4681    1.0000 </r>
       <r>    1.8160    1.0000 </r>
       <r>    1.9496    1.0000 </r>
       <r>    2.1947    1.0000 </r>
       <r>    2.2953    1.0000 </r>
       <r>    2.3711    1.0000 </r>
       <r>    3.1028    1.0000 </r>
       <r>    3.3468    1.0000 </r>
       <r>    3.5631    1.0000 </r>
       <r>    4.2240    1.0000 </r>
       <r>    4.4043    1.0000 </r>
       <r>    4.6197    1.0000 </r>
       <r>    5.9736    0.0000 </r>
       <r>    7.5555    0.0000 </r>
       <r>    7.8763    0.0000 </r>
       <r>    8.2088    0.0000 </r>
       <r>    8.2757    0.0000 </r>
       <r>    8.3822    0.0000 </r>
       <r>    8.9244    0.0000 </r>
       <r>    9.1520    0.0000 </r>
       <r>    9.2429    0.0000 </r>
       <r>    9.9692    0.0000 </r>
       <r>   10.3466    0.0000 </r>
       <r>   10.5785    0.0000 </r>
       <r>   10.9996    0.0000 </r>
       <r>   11.0567    0.0000 </r>
       <r>   11.3738    0.0000 </r>
       <r>   11.8200    0.0000 </r>
       <r>   11.8256    0.0000 </r>
       <r>   13.3271    0.0000 </r>
       <r>   13.3625    0.0000 </r>
       <r>   13.5226    0.0000 </r>
       <r>   14.2220    0.0000 </r>
       <r>   14.3323    0.0000 </r>
       <r>   14.3790    0.0000 </r>
       <r>   14.5557    0.0000 </r>
       <r>   15.0118    0.0000 </r>
       <r>   15.1759    0.0000 </r>
       <r>   15.3700    0.0000 </r>
       <r>   15.4517    0.0000 </r>
       <r>   15.9356    0.0000 </r>
       <r>   16.2137    0.0000 </r>
       <r>   16.5201    0.0000 </r>
       <r>   16.6360    0.0000 </r>
       <r>   16.6499    0.0000 </r>
       <r>   17.0538    0.0000 </r>
       <r>   18.1268    0.0000 </r>
       <r>   18.5363    0.0000 </r>
       <r>   19.1540    0.0000 </r>
       <r>   19.8819    0.0000 </r>
       <r>   19.9434    0.0000 </r>
       <r>   20.2246    0.0000 </r>
       <r>   20.3038    0.0000 </r>
       <r>   20.6445    0.0000 </r>
       <r>   21.1573    0.0000 </r>
       <r>   21.3666    0.0000 </r>
       <r>   21.3721    0.0000 </r>
       <r>   21.9691    0.0000 </r>
       <r>   22.1901    0.0000 </r>
       <r>   22.4951    0.0000 </r>
       <r>   22.9646    0.0000 </r>
       <r>   23.2596    0.0000 </r>
       <r>   23.5936    0.0000 </r>
       <r>   23.7460    0.0000 </r>
       <r>   23.9869    0.0000 </r>
       <r>   24.3149    0.0000 </r>
       <r>   24.4484    0.0000 </r>
       <r>   24.9662    0.0000 </r>
      </set>
      <set comment="kpoint 7">
       <r>  -16.2213    1.0000 </r>
       <r>  -16.2121    1.0000 </r>
       <r>  -16.2087    1.0000 </r>
       <r>  -16.2082    1.0000 </r>
       <r>  -16.2054    1.0000 </r>
       <r>  -16.2047    1.0000 </r>
       <r>  -16.2039    1.0000 </r>
       <r>  -16.2005    1.0000 </r>
       <r>  -16.1924    1.0000 </r>
       <r>  -16.1893    1.0000 </r>
       <r>  -16.1870    1.0000 </r>
       <r>  -16.1852    1.0000 </r>
       <r>  -16.1759    1.0000 </r>
       <r>  -16.1756    1.0000 </r>
       <r>  -16.1545    1.0000 </r>
       <r>  -16.1539    1.0000 </r>
       <r>  -16.1485    1.0000 </r>
       <r>  -16.1477    1.0000 </r>
       <r>  -16.1401    1.0000 </r>
       <r>  -16.1345    1.0000 </r>
       <r>   -8.4018    1.0000 </r>
       <r>   -8.0908    1.0000 </r>
       <r>   -7.4892    1.0000 </r>
       <r>   -7.0822    1.0000 </r>
       <r>   -2.1450    1.0000 </r>
       <r>   -1.2207    1.0000 </r>
       <r>   -0.5707    1.0000 </r>
       <r>   -0.3205    1.0000 </r>
       <r>    0.4792    1.0000 </r>
       <r>    1.8095    1.0000 </r>
       <r>    1.9843    1.0000 </r>
       <r>    2.2439    1.0000 </r>
       <r>    2.3236    1.0000 </r>
       <r>    2.3529    1.0000 </r>
       <r>    3.1453    1.0000 </r>
       <r>    3.3628    1.0000 </r>
       <r>    3.5445    1.0000 </r>
       <r>    4.2931    1.0000 </r>
       <r>    4.4087    1.0000 </r>
       <r>    4.5931    1.0000 </r>
       <r>    6.0099    0.0000 </r>
       <r>    7.3330    0.0000 </r>
       <r>    7.8723    0.0000 </r>
       <r>    8.2293    0.0000 </r>
       <r>    8.3160    0.0000 </r>
       <r>    8.3397    0.0000 </r>
       <r>    8.8588    0.0000 </r>
       <r>    9.0190    0.0000 </r>
       <r>    9.2290    0.0000 </r>
       <r>    9.9802    0.0000 </r>
       <r>   10.2678    0.0000 </r>
       <r>   10.4784    0.0000 </r>
       <r>   10.8416    0.0000 </r>
       <r>   10.9967    0.0000 </r>
       <r>   11.4494    0.0000 </r>
       <r>   11.7379    0.0000 </r>
       <r>   11.8335    0.0000 </r>
       <r>   13.2993    0.0000 </r>
       <r>   13.4336    0.0000 </r>
       <r>   13.5726    0.0000 </r>
       <r>   14.3432    0.0000 </r>
       <r>   14.3498    0.0000 </r>
       <r>   14.4604    0.0000 </r>
       <r>   14.7497    0.0000 </r>
       <r>   15.1708    0.0000 </r>
       <r>   15.3741    0.0000 </r>
       <r>   15.3937    0.0000 </r>
       <r>   15.5975    0.0000 </r>
       <r>   16.1398    0.0000 </r>
       <r>   16.1964    0.0000 </r>
       <r>   16.4373    0.0000 </r>
       <r>   16.7633    0.0000 </r>
       <r>   16.8684    0.0000 </r>
       <r>   17.2821    0.0000 </r>
       <r>   18.3495    0.0000 </r>
       <r>   18.3751    0.0000 </r>
       <r>   19.4229    0.0000 </r>
       <r>   19.6595    0.0000 </r>
       <r>   20.0232    0.0000 </r>
       <r>   20.1113    0.0000 </r>
       <r>   20.1762    0.0000 </r>
       <r>   20.6777    0.0000 </r>
       <r>   20.9347    0.0000 </r>
       <r>   21.4163    0.0000 </r>
       <r>   21.4893    0.0000 </r>
       <r>   22.0413    0.0000 </r>
       <r>   22.3122    0.0000 </r>
       <r>   22.5204    0.0000 </r>
       <r>   22.9746    0.0000 </r>
       <r>   23.3693    0.0000 </r>
       <r>   23.7368    0.0000 </r>
       <r>   23.9901    0.0000 </r>
       <r>   24.1990    0.0000 </r>
       <r>   24.3699    0.0000 </r>
       <r>   24.7983    0.0000 </r>
       <r>   24.9070    0.0000 </r>
      </set>
      <set comment="kpoint 8">
       <r>  -16.2201    1.0000 </r>
       <r>  -16.2121    1.0000 </r>
       <r>  -16.2092    1.0000 </r>
       <r>  -16.2071    1.0000 </r>
       <r>  -16.2054    1.0000 </r>
       <r>  -16.2046    1.0000 </r>
       <r>  -16.2042    1.0000 </r>
       <r>  -16.2010    1.0000 </r>
       <r>  -16.1927    1.0000 </r>
       <r>  -16.1891    1.0000 </r>
       <r>  -16.1875    1.0000 </r>
       <r>  -16.1845    1.0000 </r>
       <r>  -16.1758    1.0000 </r>
       <r>  -16.1754    1.0000 </r>
       <r>  -16.1544    1.0000 </r>
       <r>  -16.1539    1.0000 </r>
       <r>  -16.1493    1.0000 </r>
       <r>  -16.1473    1.0000 </r>
       <r>  -16.1400    1.0000 </r>
       <r>  -16.1346    1.0000 </r>
       <r>   -8.3703    1.0000 </r>
       <r>   -8.0642    1.0000 </r>
       <r>   -7.4750    1.0000 </r>
       <r>   -7.0818    1.0000 </r>
       <r>   -2.1806    1.0000 </r>
       <r>   -1.2889    1.0000 </r>
       <r>   -0.6134    1.0000 </r>
       <r>   -0.4534    1.0000 </r>
       <r>    0.4968    1.0000 </r>
       <r>    1.8113    1.0000 </r>
       <r>    2.0251    1.0000 </r>
       <r>    2.2918    1.0000 </r>
       <r>    2.3376    1.0000 </r>
       <r>    2.3565    1.0000 </r>
       <r>    3.1902    1.0000 </r>
       <r>    3.3810    1.0000 </r>
       <r>    3.5280    1.0000 </r>
       <r>    4.3707    1.0000 </r>
       <r>    4.4126    1.0000 </r>
       <r>    4.5598    1.0000 </r>
       <r>    6.0507    0.0000 </r>
       <r>    7.1031    0.0000 </r>
       <r>    7.8396    0.0000 </r>
       <r>    8.1982    0.0000 </r>
       <r>    8.2313    0.0000 </r>
       <r>    8.3848    0.0000 </r>
       <r>    8.8093    0.0000 </r>
       <r>    8.8937    0.0000 </r>
       <r>    9.2532    0.0000 </r>
       <r>    9.9778    0.0000 </r>
       <r>   10.1852    0.0000 </r>
       <r>   10.3750    0.0000 </r>
       <r>   10.7107    0.0000 </r>
       <r>   10.9290    0.0000 </r>
       <r>   11.5385    0.0000 </r>
       <r>   11.6671    0.0000 </r>
       <r>   11.8759    0.0000 </r>
       <r>   13.2133    0.0000 </r>
       <r>   13.5476    0.0000 </r>
       <r>   13.6339    0.0000 </r>
       <r>   14.3369    0.0000 </r>
       <r>   14.4715    0.0000 </r>
       <r>   14.5560    0.0000 </r>
       <r>   14.9477    0.0000 </r>
       <r>   15.2381    0.0000 </r>
       <r>   15.3538    0.0000 </r>
       <r>   15.6270    0.0000 </r>
       <r>   15.8610    0.0000 </r>
       <r>   16.2883    0.0000 </r>
       <r>   16.3007    0.0000 </r>
       <r>   16.3712    0.0000 </r>
       <r>   17.0227    0.0000 </r>
       <r>   17.1122    0.0000 </r>
       <r>   17.5228    0.0000 </r>
       <r>   18.1691    0.0000 </r>
       <r>   18.6188    0.0000 </r>
       <r>   19.4615    0.0000 </r>
       <r>   19.5245    0.0000 </r>
       <r>   19.8293    0.0000 </r>
       <r>   20.0855    0.0000 </r>
       <r>   20.2793    0.0000 </r>
       <r>   20.7101    0.0000 </r>
       <r>   20.7913    0.0000 </r>
       <r>   21.4861    0.0000 </r>
       <r>   21.6320    0.0000 </r>
       <r>   22.1298    0.0000 </r>
       <r>   22.3287    0.0000 </r>
       <r>   22.7360    0.0000 </r>
       <r>   22.9796    0.0000 </r>
       <r>   23.3514    0.0000 </r>
       <r>   24.0265    0.0000 </r>
       <r>   24.2475    0.0000 </r>
       <r>   24.3217    0.0000 </r>
       <r>   24.5870    0.0000 </r>
       <r>   24.7632    0.0000 </r>
       <r>   24.8808    0.0000 </r>
      </set>
      <set comment="kpoint 9">
       <r>  -16.2189    1.0000 </r>
       <r>  -16.2122    1.0000 </r>
       <r>  -16.2097    1.0000 </r>
       <r>  -16.2060    1.0000 </r>
       <r>  -16.2055    1.0000 </r>
       <r>  -16.2052    1.0000 </r>
       <r>  -16.2035    1.0000 </r>
       <r>  -16.2016    1.0000 </r>
       <r>  -16.1929    1.0000 </r>
       <r>  -16.1889    1.0000 </r>
       <r>  -16.1881    1.0000 </r>
       <r>  -16.1837    1.0000 </r>
       <r>  -16.1761    1.0000 </r>
       <r>  -16.1748    1.0000 </r>
       <r>  -16.1549    1.0000 </r>
       <r>  -16.1533    1.0000 </r>
       <r>  -16.1502    1.0000 </r>
       <r>  -16.1469    1.0000 </r>
       <r>  -16.1398    1.0000 </r>
       <r>  -16.1348    1.0000 </r>
       <r>   -8.3343    1.0000 </r>
       <r>   -8.0341    1.0000 </r>
       <r>   -7.4596    1.0000 </r>
       <r>   -7.0825    1.0000 </r>
       <r>   -2.2198    1.0000 </r>
       <r>   -1.3616    1.0000 </r>
       <r>   -0.6658    1.0000 </r>
       <r>   -0.5948    1.0000 </r>
       <r>    0.5219    1.0000 </r>
       <r>    1.8216    1.0000 </r>
       <r>    2.0717    1.0000 </r>
       <r>    2.3269    1.0000 </r>
       <r>    2.3379    1.0000 </r>
       <r>    2.3938    1.0000 </r>
       <r>    3.2362    1.0000 </r>
       <r>    3.4001    1.0000 </r>
       <r>    3.5158    1.0000 </r>
       <r>    4.4155    1.0000 </r>
       <r>    4.4550    1.0000 </r>
       <r>    4.5203    1.0000 </r>
       <r>    6.0952    0.0000 </r>
       <r>    6.8705    0.0000 </r>
       <r>    7.7740    0.0000 </r>
       <r>    8.1031    0.0000 </r>
       <r>    8.1300    0.0000 </r>
       <r>    8.3979    0.0000 </r>
       <r>    8.7746    0.0000 </r>
       <r>    8.7963    0.0000 </r>
       <r>    9.3019    0.0000 </r>
       <r>    9.9582    0.0000 </r>
       <r>   10.1137    0.0000 </r>
       <r>   10.2419    0.0000 </r>
       <r>   10.6538    0.0000 </r>
       <r>   10.8673    0.0000 </r>
       <r>   11.6110    0.0000 </r>
       <r>   11.6471    0.0000 </r>
       <r>   11.9486    0.0000 </r>
       <r>   13.1090    0.0000 </r>
       <r>   13.6643    0.0000 </r>
       <r>   13.6977    0.0000 </r>
       <r>   14.3484    0.0000 </r>
       <r>   14.5932    0.0000 </r>
       <r>   14.6236    0.0000 </r>
       <r>   15.0979    0.0000 </r>
       <r>   15.1108    0.0000 </r>
       <r>   15.5595    0.0000 </r>
       <r>   15.8043    0.0000 </r>
       <r>   16.1415    0.0000 </r>
       <r>   16.2994    0.0000 </r>
       <r>   16.4929    0.0000 </r>
       <r>   16.6216    0.0000 </r>
       <r>   17.2931    0.0000 </r>
       <r>   17.3659    0.0000 </r>
       <r>   17.7668    0.0000 </r>
       <r>   17.9991    0.0000 </r>
       <r>   18.7831    0.0000 </r>
       <r>   19.3623    0.0000 </r>
       <r>   19.3862    0.0000 </r>
       <r>   19.6490    0.0000 </r>
       <r>   20.2339    0.0000 </r>
       <r>   20.3006    0.0000 </r>
       <r>   20.4925    0.0000 </r>
       <r>   21.0049    0.0000 </r>
       <r>   21.5727    0.0000 </r>
       <r>   21.8007    0.0000 </r>
       <r>   22.2306    0.0000 </r>
       <r>   22.3756    0.0000 </r>
       <r>   22.9590    0.0000 </r>
       <r>   22.9900    0.0000 </r>
       <r>   23.2947    0.0000 </r>
       <r>   23.9658    0.0000 </r>
       <r>   24.2086    0.0000 </r>
       <r>   24.3397    0.0000 </r>
       <r>   24.5172    0.0000 </r>
       <r>   24.6543    0.0000 </r>
       <r>   24.8751    0.0000 </r>
      </set>
      <set comment="kpoint 10">
       <r>  -16.2176    1.0000 </r>
       <r>  -16.2126    1.0000 </r>
       <r>  -16.2103    1.0000 </r>
       <r>  -16.2064    1.0000 </r>
       <r>  -16.2048    1.0000 </r>
       <r>  -16.2047    1.0000 </r>
       <r>  -16.2029    1.0000 </r>
       <r>  -16.2023    1.0000 </r>
       <r>  -16.1931    1.0000 </r>
       <r>  -16.1887    1.0000 </r>
       <r>  -16.1887    1.0000 </r>
       <r>  -16.1829    1.0000 </r>
       <r>  -16.1763    1.0000 </r>
       <r>  -16.1742    1.0000 </r>
       <r>  -16.1555    1.0000 </r>
       <r>  -16.1526    1.0000 </r>
       <r>  -16.1512    1.0000 </r>
       <r>  -16.1464    1.0000 </r>
       <r>  -16.1396    1.0000 </r>
       <r>  -16.1350    1.0000 </r>
       <r>   -8.2941    1.0000 </r>
       <r>   -8.0008    1.0000 </r>
       <r>   -7.4435    1.0000 </r>
       <r>   -7.0847    1.0000 </r>
       <r>   -2.2618    1.0000 </r>
       <r>   -1.4369    1.0000 </r>
       <r>   -0.7420    1.0000 </r>
       <r>   -0.7278    1.0000 </r>
       <r>    0.5553    1.0000 </r>
       <r>    1.8399    1.0000 </r>
       <r>    2.1240    1.0000 </r>
       <r>    2.3225    1.0000 </r>
       <r>    2.3810    1.0000 </r>
       <r>    2.4349    1.0000 </r>
       <r>    3.2829    1.0000 </r>
       <r>    3.4171    1.0000 </r>
       <r>    3.5114    1.0000 </r>
       <r>    4.4167    1.0000 </r>
       <r>    4.4758    1.0000 </r>
       <r>    4.5437    1.0000 </r>
       <r>    6.1431    0.0000 </r>
       <r>    6.6394    0.0000 </r>
       <r>    7.6785    0.0000 </r>
       <r>    7.9613    0.0000 </r>
       <r>    8.0152    0.0000 </r>
       <r>    8.3711    0.0000 </r>
       <r>    8.6555    0.0000 </r>
       <r>    8.8031    0.0000 </r>
       <r>    9.3640    0.0000 </r>
       <r>    9.9177    0.0000 </r>
       <r>   10.0635    0.0000 </r>
       <r>   10.0712    0.0000 </r>
       <r>   10.6920    0.0000 </r>
       <r>   10.8287    0.0000 </r>
       <r>   11.5720    0.0000 </r>
       <r>   11.7816    0.0000 </r>
       <r>   12.0481    0.0000 </r>
       <r>   12.9940    0.0000 </r>
       <r>   13.7570    0.0000 </r>
       <r>   13.7797    0.0000 </r>
       <r>   14.3826    0.0000 </r>
       <r>   14.6217    0.0000 </r>
       <r>   14.6601    0.0000 </r>
       <r>   15.0721    0.0000 </r>
       <r>   15.1770    0.0000 </r>
       <r>   15.7848    0.0000 </r>
       <r>   15.9407    0.0000 </r>
       <r>   16.4253    0.0000 </r>
       <r>   16.5106    0.0000 </r>
       <r>   16.7395    0.0000 </r>
       <r>   16.8812    0.0000 </r>
       <r>   17.5690    0.0000 </r>
       <r>   17.6264    0.0000 </r>
       <r>   17.8434    0.0000 </r>
       <r>   18.0069    0.0000 </r>
       <r>   18.7487    0.0000 </r>
       <r>   19.1781    0.0000 </r>
       <r>   19.4815    0.0000 </r>
       <r>   19.4899    0.0000 </r>
       <r>   20.1220    0.0000 </r>
       <r>   20.2882    0.0000 </r>
       <r>   20.5885    0.0000 </r>
       <r>   21.2393    0.0000 </r>
       <r>   21.6748    0.0000 </r>
       <r>   21.9973    0.0000 </r>
       <r>   22.3425    0.0000 </r>
       <r>   22.4802    0.0000 </r>
       <r>   22.8767    0.0000 </r>
[...]
       <r>   23.1584    0.0000 </r>
      </set>
      <set comment="kpoint 224">
       <r>  -16.2240    1.0000 </r>
       <r>  -16.2240    1.0000 </r>
       <r>  -16.2240    1.0000 </r>
       <r>  -16.2240    1.0000 </r>
       <r>  -16.1970    1.0000 </r>
       <r>  -16.1970    1.0000 </r>
       <r>  -16.1970    1.0000 </r>
       <r>  -16.1970    1.0000 </r>
       <r>  -16.1852    1.0000 </r>
       <r>  -16.1852    1.0000 </r>
       <r>  -16.1852    1.0000 </r>
       <r>  -16.1852    1.0000 </r>
       <r>  -16.1636    1.0000 </r>
       <r>  -16.1636    1.0000 </r>
       <r>  -16.1636    1.0000 </r>
       <r>  -16.1636    1.0000 </r>
       <r>  -16.1401    1.0000 </r>
       <r>  -16.1401    1.0000 </r>
       <r>  -16.1401    1.0000 </r>
       <r>  -16.1401    1.0000 </r>
       <r>   -7.2680    1.0000 </r>
       <r>   -7.2680    1.0000 </r>
       <r>   -7.2680    1.0000 </r>
       <r>   -7.2680    1.0000 </r>
       <r>   -1.5871    1.0000 </r>
       <r>   -1.5871    1.0000 </r>
       <r>   -1.5871    1.0000 </r>
       <r>   -1.5871    1.0000 </r>
       <r>    0.7375    1.0000 </r>
       <r>    0.7375    1.0000 </r>
       <r>    0.7375    1.0000 </r>
       <r>    0.7375    1.0000 </r>
       <r>    1.5345    1.0000 </r>
       <r>    1.5345    1.0000 </r>
       <r>    1.5345    1.0000 </r>
       <r>    1.5345    1.0000 </r>
       <r>    3.6590    1.0000 </r>
       <r>    3.6590    1.0000 </r>
       <r>    3.6590    1.0000 </r>
       <r>    3.6590    1.0000 </r>
       <r>    7.5373    0.0000 </r>
       <r>    7.5373    0.0000 </r>
       <r>    7.5373    0.0000 </r>
       <r>    7.5373    0.0000 </r>
       <r>    9.6729    0.0000 </r>
       <r>    9.6729    0.0000 </r>
       <r>    9.6729    0.0000 </r>
       <r>    9.6729    0.0000 </r>
       <r>   11.4834    0.0000 </r>
       <r>   11.4834    0.0000 </r>
       <r>   11.4834    0.0000 </r>
       <r>   11.4834    0.0000 </r>
       <r>   12.0379    0.0000 </r>
       <r>   12.0379    0.0000 </r>
       <r>   12.0379    0.0000 </r>
       <r>   12.0379    0.0000 </r>
       <r>   14.5966    0.0000 </r>
       <r>   14.5966    0.0000 </r>
       <r>   14.5966    0.0000 </r>
       <r>   14.5966    0.0000 </r>
       <r>   15.5995    0.0000 </r>
       <r>   15.5995    0.0000 </r>
       <r>   15.5995    0.0000 </r>
       <r>   15.5995    0.0000 </r>
       <r>   17.0845    0.0000 </r>
       <r>   17.0845    0.0000 </r>
       <r>   17.0845    0.0000 </r>
       <r>   17.0845    0.0000 </r>
       <r>   17.5787    0.0000 </r>
       <r>   17.5787    0.0000 </r>
       <r>   17.5787    0.0000 </r>
       <r>   17.5787    0.0000 </r>
       <r>   18.8032    0.0000 </r>
       <r>   18.8032    0.0000 </r>
       <r>   18.8032    0.0000 </r>
       <r>   18.8032    0.0000 </r>
       <r>   19.9353    0.0000 </r>
       <r>   19.9353    0.0000 </r>
       <r>   19.9353    0.0000 </r>
       <r>   19.9355    0.0000 </r>
       <r>   20.3021    0.0000 </r>
       <r>   20.3021    0.0000 </r>
       <r>   20.3021    0.0000 </r>
       <r>   20.3021    0.0000 </r>
       <r>   21.2295    0.0000 </r>
       <r>   21.2297    0.0000 </r>
       <r>   21.2298    0.0000 </r>
       <r>   21.2327    0.0000 </r>
       <r>   22.1792    0.0000 </r>
       <r>   22.1829    0.0000 </r>
       <r>   22.2128    0.0000 </r>
       <r>   22.3203    0.0000 </r>
       <r>   22.6543    0.0000 </r>
       <r>   22.6662    0.0000 </r>
       <r>   22.9640    0.0000 </r>
       <r>   23.0439    0.0000 </r>
      </set>
     </set>
    </set>
   </array>
  </eigenvalues>
  <separator name="orbital magnetization" >
   <v name="MAGDIPOLOUT">      0.00000000      0.00000000      0.00000000</v>
  </separator>
  <dos>
   <i name="efermi">      5.20834461 </i>
   <total>
    <array>
     <dimension dim="1">gridpoints</dimension>
     <dimension dim="2">spin</dimension>
     <field>energy</field>
     <field>total</field>
     <field>integrated</field>
     <set>
      <set comment="spin 1">
       <r>   -18.3204     0.0000     0.0000 </r>
       <r>   -18.1669     0.0000     0.0000 </r>
       <r>   -18.0134     0.0000     0.0000 </r>
       <r>   -17.8599     0.0000     0.0000 </r>
       <r>   -17.7063     0.0000     0.0000 </r>
       <r>   -17.5528     0.0000     0.0000 </r>
       <r>   -17.3993     0.0000     0.0000 </r>
       <r>   -17.2457     0.0000     0.0000 </r>
       <r>   -17.0922     0.0000     0.0000 </r>
       <r>   -16.9387     0.0000     0.0000 </r>
       <r>   -16.7851     0.0000     0.0000 </r>
       <r>   -16.6316     0.0000     0.0000 </r>
       <r>   -16.4781     0.0000     0.0000 </r>
       <r>   -16.3245     0.0000     0.0000 </r>
       <r>   -16.1710   171.0715    26.2650 </r>
       <r>   -16.0175     0.0000    40.0000 </r>
       <r>   -15.8639     0.0000    40.0000 </r>
       <r>   -15.7104     0.0000    40.0000 </r>
       <r>   -15.5569     0.0000    40.0000 </r>
       <r>   -15.4033     0.0000    40.0000 </r>
       <r>   -15.2498     0.0000    40.0000 </r>
       <r>   -15.0963     0.0000    40.0000 </r>
       <r>   -14.9427     0.0000    40.0000 </r>
       <r>   -14.7892     0.0000    40.0000 </r>
       <r>   -14.6357     0.0000    40.0000 </r>
       <r>   -14.4821     0.0000    40.0000 </r>
       <r>   -14.3286     0.0000    40.0000 </r>
       <r>   -14.1751     0.0000    40.0000 </r>
       <r>   -14.0215     0.0000    40.0000 </r>
       <r>   -13.8680     0.0000    40.0000 </r>
       <r>   -13.7145     0.0000    40.0000 </r>
       <r>   -13.5610     0.0000    40.0000 </r>
       <r>   -13.4074     0.0000    40.0000 </r>
       <r>   -13.2539     0.0000    40.0000 </r>
       <r>   -13.1004     0.0000    40.0000 </r>
       <r>   -12.9468     0.0000    40.0000 </r>
       <r>   -12.7933     0.0000    40.0000 </r>
       <r>   -12.6398     0.0000    40.0000 </r>
       <r>   -12.4862     0.0000    40.0000 </r>
       <r>   -12.3327     0.0000    40.0000 </r>
       <r>   -12.1792     0.0000    40.0000 </r>
       <r>   -12.0256     0.0000    40.0000 </r>
       <r>   -11.8721     0.0000    40.0000 </r>
       <r>   -11.7186     0.0000    40.0000 </r>
       <r>   -11.5650     0.0000    40.0000 </r>
       <r>   -11.4115     0.0000    40.0000 </r>
       <r>   -11.2580     0.0000    40.0000 </r>
       <r>   -11.1044     0.0000    40.0000 </r>
       <r>   -10.9509     0.0000    40.0000 </r>
       <r>   -10.7974     0.0000    40.0000 </r>
       <r>   -10.6438     0.0000    40.0000 </r>
       <r>   -10.4903     0.0000    40.0000 </r>
       <r>   -10.3368     0.0000    40.0000 </r>
       <r>   -10.1832     0.0000    40.0000 </r>
       <r>   -10.0297     0.0000    40.0000 </r>
       <r>    -9.8762     0.0000    40.0000 </r>
       <r>    -9.7227     0.0000    40.0000 </r>
       <r>    -9.5691     0.0000    40.0000 </r>
       <r>    -9.4156     0.0000    40.0000 </r>
       <r>    -9.2621     0.0000    40.0000 </r>
       <r>    -9.1085     0.0000    40.0000 </r>
       <r>    -8.9550     0.0000    40.0000 </r>
       <r>    -8.8015     0.0000    40.0000 </r>
       <r>    -8.6479     0.0000    40.0000 </r>
       <r>    -8.4944     0.1023    40.0157 </r>
       <r>    -8.3409     1.3741    40.3806 </r>
       <r>    -8.1873     1.0061    40.7170 </r>
       <r>    -8.0338     1.0451    41.0890 </r>
       <r>    -7.8803     0.7107    41.3234 </r>
       <r>    -7.7267     3.4111    41.9701 </r>
       <r>    -7.5732     1.2738    42.3652 </r>
       <r>    -7.4197    10.2138    44.4253 </r>
       <r>    -7.2661    10.6801    46.9344 </r>
       <r>    -7.1126     0.7246    47.7898 </r>
       <r>    -6.9591     0.0000    48.0000 </r>
       <r>    -6.8055     0.0000    48.0000 </r>
       <r>    -6.6520     0.0000    48.0000 </r>
       <r>    -6.4985     0.0000    48.0000 </r>
       <r>    -6.3449     0.0000    48.0000 </r>
       <r>    -6.1914     0.0000    48.0000 </r>
       <r>    -6.0379     0.0000    48.0000 </r>
       <r>    -5.8843     0.0000    48.0000 </r>
       <r>    -5.7308     0.0000    48.0000 </r>
       <r>    -5.5773     0.0000    48.0000 </r>
       <r>    -5.4238     0.0000    48.0000 </r>
       <r>    -5.2702     0.0000    48.0000 </r>
       <r>    -5.1167     0.0000    48.0000 </r>
       <r>    -4.9632     0.0000    48.0000 </r>
       <r>    -4.8096     0.0000    48.0000 </r>
       <r>    -4.6561     0.0000    48.0000 </r>
       <r>    -4.5026     0.0000    48.0000 </r>
       <r>    -4.3490     0.0000    48.0000 </r>
       <r>    -4.1955     0.0000    48.0000 </r>
       <r>    -4.0420     0.0000    48.0000 </r>
       <r>    -3.8884     0.0000    48.0000 </r>
       <r>    -3.7349     0.0000    48.0000 </r>
       <r>    -3.5814     0.0000    48.0000 </r>
       <r>    -3.4278     0.0000    48.0000 </r>
       <r>    -3.2743     0.0000    48.0000 </r>
       <r>    -3.1208     0.0000    48.0000 </r>
       <r>    -2.9672     0.0000    48.0000 </r>
       <r>    -2.8137     0.2649    48.0407 </r>
       <r>    -2.6602     2.2415    48.4156 </r>
       <r>    -2.5066     1.1411    48.8091 </r>
       <r>    -2.3531     2.0411    49.2598 </r>
       <r>    -2.1996     1.8015    49.7498 </r>
       <r>    -2.0460     2.4657    50.4946 </r>
       <r>    -1.8925     2.1556    51.1077 </r>
       <r>    -1.7390     2.4046    51.8870 </r>
       <r>    -1.5854     3.6897    52.7897 </r>
       <r>    -1.4319     3.0698    53.8106 </r>
       <r>    -1.2784     2.1640    54.5197 </r>
       <r>    -1.1249     0.6977    54.7768 </r>
       <r>    -0.9713     0.9940    54.9830 </r>
       <r>    -0.8178     0.2422    55.0818 </r>
       <r>    -0.6643     0.4511    55.1943 </r>
       <r>    -0.5107     0.4391    55.3174 </r>
       <r>    -0.3572     0.3465    55.4728 </r>
       <r>    -0.2037     0.3645    55.5738 </r>
       <r>    -0.0501     0.4631    55.7050 </r>
       <r>     0.1034     0.5275    55.9471 </r>
       <r>     0.2569     0.0000    56.0000 </r>
       <r>     0.4105     1.3448    56.2065 </r>
       <r>     0.5640     0.7497    56.5705 </r>
       <r>     0.7175     1.0195    56.8083 </r>
       <r>     0.8711     1.2628    57.3635 </r>
       <r>     1.0246     1.3107    57.9066 </r>
       <r>     1.1781     1.9940    58.3329 </r>
       <r>     1.3317     1.4137    58.7706 </r>
       <r>     1.4852     1.7300    59.1942 </r>
       <r>     1.6387     4.2127    60.2271 </r>
       <r>     1.7923     1.5068    60.9010 </r>
       <r>     1.9458     2.6931    61.6010 </r>
       <r>     2.0993     3.5627    62.6095 </r>
       <r>     2.2529     3.7762    63.6958 </r>
       <r>     2.4064     4.5213    64.8549 </r>
       <r>     2.5599     2.9755    65.7693 </r>
       <r>     2.7134     2.6917    66.5472 </r>
       <r>     2.8670     3.3473    67.4782 </r>
       <r>     3.0205     4.0126    68.7768 </r>
       <r>     3.1740     2.7602    70.1113 </r>
       <r>     3.3276     2.1376    70.9443 </r>
       <r>     3.4811     3.9401    72.3460 </r>
       <r>     3.6346     3.8594    73.4586 </r>
       <r>     3.7882     3.4974    74.6620 </r>
       <r>     3.9417     2.0680    75.3443 </r>
       <r>     4.0952     2.2337    76.1733 </r>
       <r>     4.2488     2.1167    76.8696 </r>
       <r>     4.4023     2.4944    77.5526 </r>
       <r>     4.5558     2.4031    78.2440 </r>
       <r>     4.7094     2.9612    79.3207 </r>
       <r>     4.8629     1.1412    79.5770 </r>
       <r>     5.0164     0.5083    79.9620 </r>
       <r>     5.1700     0.0000    80.0000 </r>
       <r>     5.3235     0.0000    80.0000 </r>
       <r>     5.4770     0.0000    80.0000 </r>
       <r>     5.6306     0.0001    80.0000 </r>
       <r>     5.7841     0.1163    80.0357 </r>
       <r>     5.9376     1.0246    80.2109 </r>
       <r>     6.0912     0.7705    80.4129 </r>
       <r>     6.2447     1.6419    80.7610 </r>
       <r>     6.3982     3.5290    81.6400 </r>
       <r>     6.5518     2.9358    82.3168 </r>
       <r>     6.7053     1.1986    82.7733 </r>
       <r>     6.8588     1.7189    83.2728 </r>
       <r>     7.0123     3.5200    84.2458 </r>
       <r>     7.1659     1.6584    84.7368 </r>
       <r>     7.3194     1.3330    85.2404 </r>
       <r>     7.4729     3.4901    86.1966 </r>
       <r>     7.6265     5.4621    87.4547 </r>
       <r>     7.7800     3.3111    88.5976 </r>
       <r>     7.9335     2.3553    89.4866 </r>
       <r>     8.0871     3.7896    90.2604 </r>
       <r>     8.2406     3.2312    91.0140 </r>
       <r>     8.3941     5.3389    92.3018 </r>
       <r>     8.5477     2.5934    93.2732 </r>
       <r>     8.7012     2.0552    94.0120 </r>
       <r>     8.8547     3.6506    94.8998 </r>
       <r>     9.0083     1.7921    95.5787 </r>
       <r>     9.1618     1.3496    96.1001 </r>
       <r>     9.3153     1.7433    96.5802 </r>
       <r>     9.4689     1.9404    97.1104 </r>
       <r>     9.6224     2.6537    97.8628 </r>
       <r>     9.7759     2.4951    99.0349 </r>
       <r>     9.9295     3.6289   100.2625 </r>
       <r>    10.0830     1.4515   100.9550 </r>
       <r>    10.2365     1.1427   101.2558 </r>
       <r>    10.3901     1.2908   101.6357 </r>
       <r>    10.5436     1.4090   102.1538 </r>
       <r>    10.6971     1.5401   102.6650 </r>
       <r>    10.8506     3.0109   103.5069 </r>
       <r>    11.0042     1.7437   104.0445 </r>
       <r>    11.1577     1.6412   104.4752 </r>
       <r>    11.3112     1.7239   104.9432 </r>
       <r>    11.4648     2.9061   105.5355 </r>
       <r>    11.6183     2.7413   106.3584 </r>
       <r>    11.7718     1.0074   106.6100 </r>
       <r>    11.9254     1.0551   107.0013 </r>
       <r>    12.0789     2.8821   107.6657 </r>
       <r>    12.2324     3.4648   109.0052 </r>
       <r>    12.3860     2.6066   109.7038 </r>
       <r>    12.5395     2.4024   110.3867 </r>
       <r>    12.6930     1.6586   110.8975 </r>
       <r>    12.8466     2.7016   111.5844 </r>
       <r>    13.0001     3.3429   112.4597 </r>
       <r>    13.1536     2.7741   113.2741 </r>
       <r>    13.3072     2.3362   113.9837 </r>
       <r>    13.4607     1.9692   114.5345 </r>
       <r>    13.6142     2.3914   115.1975 </r>
       <r>    13.7678     2.2696   115.8395 </r>
       <r>    13.9213     1.8465   116.5692 </r>
       <r>    14.0748     2.8042   117.3323 </r>
       <r>    14.2284     2.7729   118.0864 </r>
       <r>    14.3819     2.8702   118.7532 </r>
       <r>    14.5354     4.5968   119.7950 </r>
       <r>    14.6890     5.5805   121.4014 </r>
       <r>    14.8425     4.1434   122.5915 </r>
       <r>    14.9960     3.9829   123.5936 </r>
       <r>    15.1495     4.5427   124.8671 </r>
       <r>    15.3031     3.7787   125.9819 </r>
       <r>    15.4566     3.4273   126.7941 </r>
       <r>    15.6101     3.4849   127.8118 </r>
       <r>    15.7637     3.9450   129.0432 </r>
       <r>    15.9172     1.9108   129.8826 </r>
       <r>    16.0707     2.6057   130.7036 </r>
       <r>    16.2243     3.1968   131.5176 </r>
       <r>    16.3778     4.0474   132.6571 </r>
       <r>    16.5313     5.2184   134.2030 </r>
       <r>    16.6849     4.0739   135.3398 </r>
       <r>    16.8384     2.4867   136.2300 </r>
       <r>    16.9919     3.0192   137.2135 </r>
       <r>    17.1455     4.4853   138.3583 </r>
       <r>    17.2990     2.6370   139.2174 </r>
       <r>    17.4525     3.1082   140.1111 </r>
       <r>    17.6061     8.6300   142.0482 </r>
       <r>    17.7596     3.5798   143.3889 </r>
       <r>    17.9131     3.4489   144.2349 </r>
       <r>    18.0667     2.6310   144.9486 </r>
       <r>    18.2202     2.2216   145.6357 </r>
       <r>    18.3737     3.2725   146.4846 </r>
       <r>    18.5273     3.5294   147.5597 </r>
       <r>    18.6808     3.0097   148.4264 </r>
       <r>    18.8343     5.9774   149.9534 </r>
       <r>    18.9878     4.4793   151.1609 </r>
       <r>    19.1414     4.2535   152.6263 </r>
       <r>    19.2949     2.3463   153.5745 </r>
       <r>    19.4484     3.7168   154.5349 </r>
       <r>    19.6020     3.2304   155.4424 </r>
       <r>    19.7555     3.0561   156.6031 </r>
       <r>    19.9090     3.4237   157.5257 </r>
       <r>    20.0626     3.3240   158.5550 </r>
       <r>    20.2161     4.1306   159.7860 </r>
       <r>    20.3696     5.7108   161.2696 </r>
       <r>    20.5232     3.1686   162.4508 </r>
       <r>    20.6767     4.0976   163.6202 </r>
       <r>    20.8302     3.9391   164.7119 </r>
       <r>    20.9838     4.0338   165.8247 </r>
       <r>    21.1373     5.6375   167.0798 </r>
       <r>    21.2908     4.4475   168.3257 </r>
       <r>    21.4444     4.1086   169.5415 </r>
       <r>    21.5979     4.1180   170.8198 </r>
       <r>    21.7514     2.9020   171.5080 </r>
       <r>    21.9050     4.7959   172.8078 </r>
       <r>    22.0585     4.4321   174.0197 </r>
       <r>    22.2120     7.0774   175.7741 </r>
       <r>    22.3656     3.2474   176.9986 </r>
       <r>    22.5191     2.9402   177.8443 </r>
       <r>    22.6726     4.2377   178.9988 </r>
       <r>    22.8262     3.6639   180.2232 </r>
       <r>    22.9797     4.4231   181.6255 </r>
       <r>    23.1332     3.9986   182.8371 </r>
       <r>    23.2867     5.3129   184.3068 </r>
       <r>    23.4403     3.5245   185.4608 </r>
       <r>    23.5938     3.0405   186.3775 </r>
       <r>    23.7473     2.5074   187.1260 </r>
       <r>    23.9009     2.3421   187.8149 </r>
       <r>    24.0544     3.2211   188.5749 </r>
       <r>    24.2079     2.6207   189.2149 </r>
       <r>    24.3615     2.4967   190.0530 </r>
       <r>    24.5150     1.6128   190.5423 </r>
       <r>    24.6685     1.4712   190.9223 </r>
       <r>    24.8221     0.7494   191.2133 </r>
       <r>    24.9756     1.0017   191.5199 </r>
       <r>    25.1291     0.2811   191.6503 </r>
       <r>    25.2827     0.7526   191.8031 </r>
       <r>    25.4362     0.3210   191.8886 </r>
       <r>    25.5897     0.1312   191.9844 </r>
       <r>    25.7433     0.0000   192.0000 </r>
       <r>    25.8968     0.0000   192.0000 </r>
       <r>    26.0503     0.0000   192.0000 </r>
       <r>    26.2039     0.0000   192.0000 </r>
       <r>    26.3574     0.0000   192.0000 </r>
       <r>    26.5109     0.0000   192.0000 </r>
       <r>    26.6645     0.0000   192.0000 </r>
       <r>    26.8180     0.0000   192.0000 </r>
       <r>    26.9715     0.0000   192.0000 </r>
       <r>    27.1250     0.0000   192.0000 </r>
       <r>    27.2786     0.0000   192.0000 </r>
       <r>    27.4321     0.0000   192.0000 </r>
       <r>    27.5856     0.0000   192.0000 </r>
       <r>    27.7392     0.0000   192.0000 </r>
      </set>
     </set>
    </array>
   </total>
  </dos>
 </calculation>
 <structure name="finalpos" >
  <crystal>
   <varray name="basis" >
    <v>       4.17214183       0.00000000       0.00000000 </v>
    <v>       0.00000000       4.55520807       0.00000000 </v>
    <v>       0.00000000       0.00000000      11.58801393 </v>
   </varray>
   <i name="volume">    220.22990499 </i>
   <varray name="rec_basis" >
    <v>       0.23968504       0.00000000       0.00000000 </v>
    <v>       0.00000000       0.21952894       0.00000000 </v>
    <v>       0.00000000       0.00000000       0.08629606 </v>
   </varray>
  </crystal>
  <varray name="positions" >
   <v>       0.25000000       0.11313331       0.11695741 </v>
   <v>       0.75000000       0.88686669       0.88304259 </v>
   <v>       0.75000000       0.61313331       0.38304259 </v>
   <v>       0.25000000       0.38686669       0.61695741 </v>
   <v>       0.75000000       0.51830297       0.14525948 </v>
   <v>       0.25000000       0.48169703       0.85474052 </v>
   <v>       0.25000000       0.01830297       0.35474052 </v>
   <v>       0.75000000       0.98169703       0.64525948 </v>
  </varray>
 </structure>
</modeling>
