 vasp.5.4.4.18Apr17-6-g9f103f2a35 (build Mar 20 2018 18:07:30) complex           
 executed on             LinuxGNU date 2020.07.06  12:22:19
 running on    8 total cores
 distrk:  each k-point on    8 cores,    1 groups
 distr:  one band on NCORES_PER_BAND=   2 cores,    4 groups


--------------------------------------------------------------------------------------------------------


 INCAR:
 POTCAR:    PAW_PBE Bi 08Apr2002                  
 POTCAR:    PAW_PBE Te 08Apr2002                  
 POTCAR:    PAW_PBE Bi 08Apr2002                  
   VRHFIN =Bi:                                                                  
   LEXCH  = PE                                                                  
   EATOM  =   150.8133 eV,   11.0845 Ry                                         
                                                                                
   TITEL  = PAW_PBE Bi 08Apr2002                                                
   LULTRA =        F    use ultrasoft PP ?                                      
   IUNSCR =        1    unscreen: 0-lin 1-nonlin 2-no                           
   RPACOR =    2.200    partial core radius                                     
   POMASS =  208.980; ZVAL   =    5.000    mass and valenz                      
   RCORE  =    3.000    outmost cutoff radius                                   
   RWIGS  =    3.090; RWIGS  =    1.635    wigner-seitz radius (au A)           
   ENMAX  =  105.037; ENMIN  =   78.777 eV                                      
   ICORE  =        3    local potential                                         
   LCOR   =        T    correct aug charges                                     
   LPAW   =        T    paw PP                                                  
   EAUG   =  265.427                                                            
   DEXC   =    0.000                                                            
   RMAX   =    3.067    core radius for proj-oper                               
   RAUG   =    1.300    factor for augmentation sphere                          
   RDEP   =    3.012    radius for radial grids                                 
   RDEPT  =    2.604    core radius for aug-charge                              
                                                                                
   Atomic configuration                                                         
   17 entries                                                                   
     n  l   j            E        occ.                                          
     1  0  0.50    -90639.6582   2.0000                                         
     2  0  0.50    -16282.4667   2.0000                                         
     2  1  1.50    -13922.8287   6.0000                                         
     3  0  0.50     -3930.4763   2.0000                                         
     3  1  1.50     -3256.7013   6.0000                                         
     3  2  2.50     -2581.6169  10.0000                                         
     4  0  0.50      -902.2614   2.0000                                         
     4  1  1.50      -681.5915   6.0000                                         
     4  2  2.50      -429.8249  10.0000                                         
     4  3  3.50      -152.6004  14.0000                                         
     5  0  0.50      -157.7156   2.0000                                         
     5  1  1.50       -95.8054   6.0000                                         
     5  2  2.50       -27.0806  10.0000                                         
     6  0  0.50       -14.4732   2.0000                                         
     6  1  1.50        -4.5702   3.0000                                         
     6  2  2.50        -2.7212   0.0000                                         
     5  3  2.50        -2.7212   0.0000                                         
   Description                                                                  
     l       E           TYP  RCUT    TYP  RCUT                                 
     0    -14.4732299     23  3.000                                             
     0    -12.2452434     23  3.000                                             
     1     -4.5701666     23  3.000                                             
     1    -13.6058260     23  3.000                                             
     2     -2.7211652     23  3.000                                             
     3     -1.3605826      7  3.000                                             
  local pseudopotential read in
  partial core-charges read in
  partial kinetic energy density read in
  kinetic energy density of atom read in
  atomic valenz-charges read in
  non local Contribution for L=           0  read in
    real space projection operators read in
  non local Contribution for L=           0  read in
    real space projection operators read in
  non local Contribution for L=           1  read in
    real space projection operators read in
  non local Contribution for L=           1  read in
    real space projection operators read in
  non local Contribution for L=           2  read in
    real space projection operators read in
    PAW grid and wavefunctions read in

   number of l-projection  operators is LMAX  =           5
   number of lm-projection operators is LMMAX =          13

 POTCAR:    PAW_PBE Te 08Apr2002                  
   VRHFIN =Te: s2p4                                                             
   LEXCH  = PE                                                                  
   EATOM  =   223.2721 eV,   16.4100 Ry                                         
                                                                                
   TITEL  = PAW_PBE Te 08Apr2002                                                
   LULTRA =        F    use ultrasoft PP ?                                      
   IUNSCR =        1    unscreen: 0-lin 1-nonlin 2-no                           
   RPACOR =    2.200    partial core radius                                     
   POMASS =  127.600; ZVAL   =    6.000    mass and valenz                      
   RCORE  =    2.300    outmost cutoff radius                                   
   RWIGS  =    2.900; RWIGS  =    1.535    wigner-seitz radius (au A)           
   ENMAX  =  174.982; ENMIN  =  131.236 eV                                      
   ICORE  =        3    local potential                                         
   LCOR   =        T    correct aug charges                                     
   LPAW   =        T    paw PP                                                  
   EAUG   =  368.792                                                            
   DEXC   =    0.000                                                            
   RMAX   =    2.345    core radius for proj-oper                               
   RAUG   =    1.300    factor for augmentation sphere                          
   RDEP   =    2.397    radius for radial grids                                 
   RDEPT  =    2.174    core radius for aug-charge                              
                                                                                
   Atomic configuration                                                         
   13 entries                                                                   
     n  l   j            E        occ.                                          
     1  0  0.50    -31621.2075   2.0000                                         
     2  0  0.50     -4848.7941   2.0000                                         
     2  1  1.50     -4352.1960   6.0000                                         
     3  0  0.50      -964.9612   2.0000                                         
     3  1  1.50      -803.6179   6.0000                                         
     3  2  2.50      -559.8710  10.0000                                         
     4  0  0.50      -164.3522   2.0000                                         
     4  1  1.50      -114.3756   6.0000                                         
     4  2  2.50       -41.6483  10.0000                                         
     5  0  0.50       -15.1072   2.0000                                         
     5  1  0.50        -5.9526   4.0000                                         
     5  2  1.50        -5.4423   0.0000                                         
     4  3  2.50        -5.4423   0.0000                                         
   Description                                                                  
     l       E           TYP  RCUT    TYP  RCUT                                 
     0    -15.1072389     23  2.300                                             
     0    -16.4678215     23  2.300                                             
     1     -5.9526306     23  2.300                                             
     1     -2.4873968     23  2.300                                             
     2     -5.4423304     23  2.300                                             
     3     -1.3605826     23  2.300                                             
  local pseudopotential read in
  partial core-charges read in
  partial kinetic energy density read in
  atomic valenz-charges read in
  non local Contribution for L=           0  read in
    real space projection operators read in
  non local Contribution for L=           0  read in
    real space projection operators read in
  non local Contribution for L=           1  read in
    real space projection operators read in
  non local Contribution for L=           1  read in
    real space projection operators read in
  non local Contribution for L=           2  read in
    real space projection operators read in
    PAW grid and wavefunctions read in

   number of l-projection  operators is LMAX  =           5
   number of lm-projection operators is LMMAX =          13

 WARNING: PSMAXN for non-local potential too small
          PSMAXN should be >   12.549083372950625       NTYP=           1
  PAW_PBE Bi 08Apr2002                  :
 energy of atom  1       EATOM= -150.8133
 kinetic energy error for atom=    0.0000 (will be added to EATOM!!)
  PAW_PBE Te 08Apr2002                  :
 energy of atom  2       EATOM= -223.2721
 kinetic energy error for atom=    0.0004 (will be added to EATOM!!)


 POSCAR: Bi2 Te3                                 
  positions in direct lattice
  No initial velocities read in
 exchange correlation table for  LEXCH =        8
   RHO(1)=    0.500       N(1)  =     2000
   RHO(2)=  100.500       N(2)  =     4000



--------------------------------------------------------------------------------------------------------


 ion  position               nearest neighbor table
   1  0.400  0.400  0.400-   5 3.08   5 3.08   5 3.08   3 3.26   3 3.26   3 3.26
   2  0.600  0.600  0.600-   4 3.08   4 3.08   4 3.08   3 3.26   3 3.26   3 3.26
   3  0.000  0.000  0.000-   2 3.26   2 3.26   1 3.26   1 3.26   2 3.26   1 3.26
   4  0.210  0.210  0.210-   2 3.08   2 3.08   2 3.08
   5  0.790  0.790  0.790-   1 3.08   1 3.08   1 3.08


IMPORTANT INFORMATION: All symmetrisations will be switched off!
NOSYMM: (Re-)initialisation of all symmetry stuff for point group C_1.



 KPOINTS: k-points along high symmetry lines      
  k-points in reciprocal lattice
Space group operators:
 irot       det(A)        alpha          n_x          n_y          n_z        tau_x        tau_y        tau_z
    1     1.000000     0.000000     1.000000     0.000000     0.000000     0.000000     0.000000     0.000000


--------------------------------------------------------------------------------------------------------




 Dimension of arrays:
   k-points           NKPTS =    201   k-points in BZ     NKDIM =    201   number of bands    NBANDS=     88
   number of dos      NEDOS =    301   number of ions     NIONS =      5
   non local maximal  LDIM  =      5   non local SUM 2l+1 LMDIM =     13
   total plane-waves  NPLWV = 592704
   max r-space proj   IRMAX =      1   max aug-charges    IRDMAX= ******
   dimension x,y,z NGX =    84 NGY =   84 NGZ =   84
   dimension x,y,z NGXF=   168 NGYF=  168 NGZF=  168
   support grid    NGXF=   336 NGYF=  336 NGZF=  336
   ions per type =               2   3
   NGX,Y,Z   is equivalent  to a cutoff of  13.35, 13.35, 13.35 a.u.
   NGXF,Y,Z  is equivalent  to a cutoff of  26.70, 26.70, 26.70 a.u.

 SYSTEM =  BiTe                                    
 POSCAR =  Bi2 Te3                                 

 Startparameter for this run:
   NWRITE =      2    write-flag & timer
   PREC   = accura    normal or accurate (medium, high low for compatibility)
   ISTART =      0    job   : 0-new  1-cont  2-samecut
   ICHARG =     11    charge: 1-file 2-atom 10-const
   ISPIN  =      1    spin polarized calculation?
   LNONCOLLINEAR =      T non collinear calculations
   LSORBIT =      T    spin-orbit coupling
   INIWAV =      1    electr: 0-lowe 1-rand  2-diag
   LASPH  =      F    aspherical Exc in radial PAW
   METAGGA=      F    non-selfconsistent MetaGGA calc.

 Electronic Relaxation 1
   ENCUT  =  600.0 eV  44.10 Ry    6.64 a.u.  20.89 20.89 20.89*2*pi/ulx,y,z
   ENINI  =  600.0     initial cutoff
   ENAUG  =  368.8 eV  augmentation charge cutoff
   NELM   =     60;   NELMIN=  2; NELMDL=  0     # of ELM steps 
   EDIFF  = 0.1E-06   stopping-criterion for ELM
   LREAL  =      F    real-space projection
   NLSPLINE    = F    spline interpolate recip. space projectors
   LCOMPAT=      F    compatible to vasp.4.4
   GGA_COMPAT  = F    GGA compatible to vasp.4.4-vasp.4.6
   LMAXPAW     = -100 max onsite density
   LMAXMIX     =    4 max onsite mixed and CHGCAR
   VOSKOWN=      0    Vosko Wilk Nusair interpolation
   ROPT   =    0.00000   0.00000
 Ionic relaxation
   EDIFFG = -.1E-02   stopping-criterion for IOM
   NSW    =      0    number of steps for IOM
   NBLOCK =      1;   KBLOCK =      1    inner block; outer block 
   IBRION =     -1    ionic relax: 0-MD 1-quasi-New 2-CG
   NFREE  =      0    steps in history (QN), initial steepest desc. (CG)
   ISIF   =      2    stress and relaxation
   IWAVPR =     10    prediction:  0-non 1-charg 2-wave 3-comb
   ISYM   =     -1    0-nonsym 1-usesym 2-fastsym
   LCORR  =      T    Harris-Foulkes like correction to forces

   POTIM  = 0.5000    time-step for ionic-motion
   TEIN   =    0.0    initial temperature
   TEBEG  =    0.0;   TEEND  =   0.0 temperature during run
   SMASS  =  -3.00    Nose mass-parameter (am)
   estimated Nose-frequenzy (Omega)   =  0.10E-29 period in steps =****** mass=  -0.250E-26a.u.
   SCALEE = 1.0000    scale energy and forces
   NPACO  =    256;   APACO  = 16.0  distance and # of slots for P.C.
   PSTRESS=    0.0 pullay stress

  Mass of Ions in am
   POMASS = 208.98127.60
  Ionic Valenz
   ZVAL   =   5.00  6.00
  Atomic Wigner-Seitz radii
   RWIGS  =  -1.00 -1.00
  virtual crystal weights 
   VCA    =   1.00  1.00
   NELECT =      28.0000    total number of electrons
   NUPDOWN=      -1.0000    fix difference up-down

 DOS related values:
   EMIN   =  10.00;   EMAX   =-10.00  energy-range for DOS
   EFERMI =   0.00
   ISMEAR =     0;   SIGMA  =   0.01  broadening in eV -4-tet -1-fermi 0-gaus

 Electronic relaxation 2 (details)
   IALGO  =     58    algorithm
   LDIAG  =      T    sub-space diagonalisation (order eigenvalues)
   LSUBROT=      F    optimize rotation matrix (better conditioning)
   TURBO    =      0    0=normal 1=particle mesh
   IRESTART =      0    0=no restart 2=restart with 2 vectors
   NREBOOT  =      0    no. of reboots
   NMIN     =      0    reboot dimension
   EREF     =   0.00    reference energy to select bands
   IMIX   =      4    mixing-type and parameters
     AMIX     =   0.40;   BMIX     =  1.00
     AMIX_MAG =   1.60;   BMIX_MAG =  1.00
     AMIN     =   0.10
     WC   =   100.;   INIMIX=   1;  MIXPRE=   1;  MAXMIX= -45

 Intra band minimization:
   WEIMIN = 0.0000     energy-eigenvalue tresh-hold
   EBREAK =  0.28E-09  absolut break condition
   DEPER  =   0.30     relativ break condition  

   TIME   =   0.40     timestep for ELM

  volume/ion in A,a.u.               =      34.53       232.99
  Fermi-wavevector in a.u.,A,eV,Ry     =   0.892805  1.687157 10.845211  0.797101
  Thomas-Fermi vector in A             =   2.014801

 Write flags
   LWAVE        =      F    write WAVECAR
   LDOWNSAMPLE  =      F    k-point downsampling of WAVECAR
   LCHARG       =      F    write CHGCAR
   LVTOT        =      F    write LOCPOT, total local potential
   LVHAR        =      F    write LOCPOT, Hartree potential only
   LELF         =      F    write electronic localiz. function (ELF)
   LORBIT       =      0    0 simple, 1 ext, 2 COOP (PROOUT), +10 PAW based schemes


 Dipole corrections
   LMONO  =      F    monopole corrections only (constant potential shift)
   LDIPOL =      F    correct potential (dipole corrections)
   IDIPOL =      0    1-x, 2-y, 3-z, 4-all directions 
   EPSILON=  1.0000000 bulk dielectric constant

 Exchange correlation treatment:
   GGA     =    --    GGA type
   LEXCH   =     8    internal setting for exchange type
   VOSKOWN=      0    Vosko Wilk Nusair interpolation
   LHFCALC =     F    Hartree Fock is set to
   LHFONE  =     F    Hartree Fock one center treatment
   AEXX    =    0.0000 exact exchange contribution

 Linear response parameters
   LEPSILON=     F    determine dielectric tensor
   LRPA    =     F    only Hartree local field effects (RPA)
   LNABLA  =     F    use nabla operator in PAW spheres
   LVEL    =     F    velocity operator in full k-point grid
   LINTERFAST=   F  fast interpolation
   KINTER  =     0    interpolate to denser k-point grid
   CSHIFT  =0.1000    complex shift for real part using Kramers Kronig
   OMEGAMAX=  -1.0    maximum frequency
   DEG_THRESHOLD= 0.2000000E-02 threshold for treating states as degnerate
   RTIME   =   -0.100 relaxation time in fs
  (WPLASMAI=    0.000 imaginary part of plasma frequency in eV, 0.658/RTIME)
   DFIELD  = 0.0000000 0.0000000 0.0000000 field for delta impulse in time

 Orbital magnetization related:
   ORBITALMAG=     F  switch on orbital magnetization
   LCHIMAG   =     F  perturbation theory with respect to B field
   DQ        =  0.001000  dq finite difference perturbation B field
   LLRAUG    =     F  two centre corrections for induced B field



--------------------------------------------------------------------------------------------------------


 Static calculation
 charge density and potential remain constant during run
 non collinear spin polarized calculation
 Conjugate gradient for all bands (Freysoldt, et al. PRB 79, 241103 (2009))
 preconditioned conjugated gradient   charged. constant during bandupdate  
 perform sub-space diagonalisation
    before iterative eigenvector-optimisation
 no mixing
 using additional bands           74
 reciprocal scheme for non local part
 use partial core corrections
 calculate Harris-corrections to forces   (improved forces if not selfconsistent)
 use gradient corrections 
 WARNING: stress and forces are not correct
  (second derivative of E(xc) not defined)
 use of overlap-Matrix (Vanderbilt PP)
 Gauss-broadening in eV      SIGMA  =   0.01


--------------------------------------------------------------------------------------------------------


  energy-cutoff  :      600.00
  volume of cell :      172.63
      direct lattice vectors                 reciprocal lattice vectors
    10.222282710 -2.216677340  0.000000000     0.048912754 -0.225562824 -0.125089241
    10.222282710  2.216677340  0.000000000     0.048912754  0.225562824 -0.125089241
     9.741601570  0.000000000  3.809189020    -0.000000000  0.000000000  0.262523071

  length of vectors
    10.459862439 10.459862439 10.459862434     0.262523071  0.262523071  0.262523071



 k-points in units of 2pi/SCALE and weight: k-points along high symmetry lines      
   0.05680522 -0.10918955 -0.05637231       0.005
   0.05538509 -0.10645979 -0.05496299       0.005
   0.05396500 -0.10373025 -0.05355380       0.005
   0.05254487 -0.10100049 -0.05214448       0.005
   0.05112474 -0.09827073 -0.05073516       0.005
   0.04970460 -0.09554097 -0.04932584       0.005
   0.04828447 -0.09281121 -0.04791652       0.005
   0.04686434 -0.09008145 -0.04650720       0.005
   0.04544420 -0.08735168 -0.04509787       0.005
   0.04402407 -0.08462192 -0.04368855       0.005
   0.04260394 -0.08189216 -0.04227923       0.005
   0.04118381 -0.07916240 -0.04086991       0.005
   0.03976367 -0.07643264 -0.03946059       0.005
   0.03834354 -0.07370288 -0.03805127       0.005
   0.03692341 -0.07097312 -0.03664195       0.005
   0.03550327 -0.06824336 -0.03523263       0.005
   0.03408314 -0.06551359 -0.03382331       0.005
   0.03266306 -0.06278406 -0.03241411       0.005
   0.03124292 -0.06005430 -0.03100479       0.005
   0.02982279 -0.05732454 -0.02959547       0.005
   0.02840266 -0.05459477 -0.02818615       0.005
   0.02698253 -0.05186501 -0.02677683       0.005
   0.02556239 -0.04913525 -0.02536751       0.005
   0.02414226 -0.04640549 -0.02395819       0.005
   0.02272213 -0.04367573 -0.02254887       0.005
   0.02130194 -0.04094619 -0.02113969       0.005
   0.01988181 -0.03821643 -0.01973036       0.005
   0.01846168 -0.03548667 -0.01832104       0.005
   0.01704155 -0.03275691 -0.01691172       0.005
   0.01562141 -0.03002715 -0.01550240       0.005
   0.01420128 -0.02729739 -0.01409308       0.005
   0.01278115 -0.02456763 -0.01268376       0.005
   0.01136101 -0.02183786 -0.01127444       0.005
   0.00994093 -0.01910833 -0.00986524       0.005
   0.00852080 -0.01637857 -0.00845592       0.005
   0.00710066 -0.01364881 -0.00704660       0.005
   0.00568053 -0.01091905 -0.00563728       0.005
   0.00426040 -0.00818928 -0.00422796       0.005
   0.00284027 -0.00545952 -0.00281864       0.005
   0.00142013 -0.00272976 -0.00140932       0.005
   0.00000000  0.00000000  0.00000000       0.005
   0.00122282  0.00000000  0.00015431       0.005
   0.00244564  0.00000000  0.00030861       0.005
   0.00366846  0.00000000  0.00046292       0.005
   0.00489128  0.00000000  0.00061723       0.005
   0.00611409  0.00000000  0.00077154       0.005
   0.00733691  0.00000000  0.00092584       0.005
   0.00855973  0.00000000  0.00108015       0.005
   0.00978255  0.00000000  0.00123446       0.005
   0.01100537  0.00000000  0.00138877       0.005
   0.01222819  0.00000000  0.00154307       0.005
   0.01345101  0.00000000  0.00169738       0.005
   0.01467383  0.00000000  0.00185169       0.005
   0.01589665  0.00000000  0.00200600       0.005
   0.01711946  0.00000000  0.00216030       0.005
   0.01834228  0.00000000  0.00231461       0.005
   0.01956510  0.00000000  0.00246892       0.005
   0.02078792  0.00000000  0.00262323       0.005
   0.02201074  0.00000000  0.00277753       0.005
   0.02323356  0.00000000  0.00293184       0.005
   0.02445638  0.00000000  0.00308615       0.005
   0.02567920  0.00000000  0.00324045       0.005
   0.02690201  0.00000000  0.00339476       0.005
   0.02812483  0.00000000  0.00354907       0.005
   0.02934765  0.00000000  0.00370338       0.005
   0.03057047  0.00000000  0.00385768       0.005
   0.03179329  0.00000000  0.00401199       0.005
   0.03301611  0.00000000  0.00416630       0.005
   0.03423893  0.00000000  0.00432061       0.005
   0.03546175  0.00000000  0.00447491       0.005
   0.03668457  0.00000000  0.00462922       0.005
   0.03790738  0.00000000  0.00478353       0.005
   0.03913020  0.00000000  0.00493784       0.005
   0.04035302  0.00000000  0.00509214       0.005
   0.04157584  0.00000000  0.00524645       0.005
   0.04279866  0.00000000  0.00540076       0.005
   0.04402148  0.00000000  0.00555507       0.005
   0.04524430  0.00000000  0.00570937       0.005
   0.04646712  0.00000000  0.00586368       0.005
   0.04768994  0.00000000  0.00601799       0.005
   0.04891275  0.00000000  0.00617230       0.005
   0.04891275  0.00000000  0.00289076       0.005
   0.04891275  0.00000000 -0.00039078       0.005
   0.04891275  0.00000000 -0.00367232       0.005
   0.04891275  0.00000000 -0.00695386       0.005
   0.04891275  0.00000000 -0.01023540       0.005
   0.04891275  0.00000000 -0.01351694       0.005
   0.04891275  0.00000000 -0.01679847       0.005
   0.04891275  0.00000000 -0.02008001       0.005
   0.04891275  0.00000000 -0.02336155       0.005
   0.04891275  0.00000000 -0.02664309       0.005
   0.04891275  0.00000000 -0.02992463       0.005
   0.04891275  0.00000000 -0.03320617       0.005
   0.04891275  0.00000000 -0.03648770       0.005
   0.04891275  0.00000000 -0.03976924       0.005
   0.04891275  0.00000000 -0.04305078       0.005
   0.04891275  0.00000000 -0.04633232       0.005
   0.04891275  0.00000000 -0.04961386       0.005
   0.04891275  0.00000000 -0.05289540       0.005
   0.04891275  0.00000000 -0.05617693       0.005
   0.04891275  0.00000000 -0.05945847       0.005
   0.04891275  0.00000000 -0.06274001       0.005
   0.04891275  0.00000000 -0.06602155       0.005
   0.04891275  0.00000000 -0.06930309       0.005
   0.04891275  0.00000000 -0.07258463       0.005
   0.04891275  0.00000000 -0.07586616       0.005
   0.04891275  0.00000000 -0.07914770       0.005
   0.04891275  0.00000000 -0.08242924       0.005
   0.04891275  0.00000000 -0.08571078       0.005
   0.04891275  0.00000000 -0.08899232       0.005
   0.04891275  0.00000000 -0.09227386       0.005
   0.04891275  0.00000000 -0.09555540       0.005
   0.04891275  0.00000000 -0.09883693       0.005
   0.04891275  0.00000000 -0.10211847       0.005
   0.04891275  0.00000000 -0.10540001       0.005
   0.04891275  0.00000000 -0.10868155       0.005
   0.04891275  0.00000000 -0.11196309       0.005
   0.04891275  0.00000000 -0.11524463       0.005
   0.04891275  0.00000000 -0.11852616       0.005
   0.04891275  0.00000000 -0.12180770       0.005
   0.04891275  0.00000000 -0.12508924       0.005
   0.04768994  0.00000000 -0.12196201       0.005
   0.04646712  0.00000000 -0.11883478       0.005
   0.04524430  0.00000000 -0.11570755       0.005
   0.04402148  0.00000000 -0.11258032       0.005
   0.04279866  0.00000000 -0.10945309       0.005
   0.04157584  0.00000000 -0.10632585       0.005
   0.04035302  0.00000000 -0.10319862       0.005
   0.03913020  0.00000000 -0.10007139       0.005
   0.03790738  0.00000000 -0.09694416       0.005
   0.03668457  0.00000000 -0.09381693       0.005
   0.03546175  0.00000000 -0.09068970       0.005
   0.03423893  0.00000000 -0.08756247       0.005
   0.03301611  0.00000000 -0.08443524       0.005
   0.03179329  0.00000000 -0.08130801       0.005
   0.03057047  0.00000000 -0.07818078       0.005
   0.02934765  0.00000000 -0.07505354       0.005
   0.02812483  0.00000000 -0.07192631       0.005
   0.02690201  0.00000000 -0.06879908       0.005
   0.02567920  0.00000000 -0.06567185       0.005
   0.02445638  0.00000000 -0.06254462       0.005
   0.02323356  0.00000000 -0.05941739       0.005
   0.02201074  0.00000000 -0.05629016       0.005
   0.02078792  0.00000000 -0.05316293       0.005
   0.01956510  0.00000000 -0.05003570       0.005
   0.01834228  0.00000000 -0.04690847       0.005
   0.01711946  0.00000000 -0.04378123       0.005
   0.01589665  0.00000000 -0.04065400       0.005
   0.01467383  0.00000000 -0.03752677       0.005
   0.01345101  0.00000000 -0.03439954       0.005
   0.01222819  0.00000000 -0.03127231       0.005
   0.01100537  0.00000000 -0.02814508       0.005
   0.00978255  0.00000000 -0.02501785       0.005
   0.00855973  0.00000000 -0.02189062       0.005
   0.00733691  0.00000000 -0.01876339       0.005
   0.00611409  0.00000000 -0.01563616       0.005
   0.00489128  0.00000000 -0.01250892       0.005
   0.00366846  0.00000000 -0.00938169       0.005
   0.00244564  0.00000000 -0.00625446       0.005
   0.00122282  0.00000000 -0.00312723       0.005
   0.00000000  0.00000000  0.00000000       0.005
   0.00132148 -0.00136488 -0.00062751       0.005
   0.00264295 -0.00272976 -0.00125501       0.005
   0.00396443 -0.00409464 -0.00188252       0.005
   0.00528590 -0.00545952 -0.00251003       0.005
   0.00660738 -0.00682440 -0.00313753       0.005
   0.00792886 -0.00818928 -0.00376504       0.005
   0.00925033 -0.00955416 -0.00439255       0.005
   0.01057181 -0.01091905 -0.00502005       0.005
   0.01189328 -0.01228393 -0.00564756       0.005
   0.01321476 -0.01364881 -0.00627507       0.005
   0.01453623 -0.01501369 -0.00690257       0.005
   0.01585771 -0.01637857 -0.00753008       0.005
   0.01717919 -0.01774345 -0.00815759       0.005
   0.01850066 -0.01910833 -0.00878509       0.005
   0.01982214 -0.02047321 -0.00941260       0.005
   0.02114357 -0.02183786 -0.01003998       0.005
   0.02246504 -0.02320275 -0.01066749       0.005
   0.02378652 -0.02456763 -0.01129499       0.005
   0.02510799 -0.02593251 -0.01192250       0.005
   0.02642947 -0.02729739 -0.01255001       0.005
   0.02775094 -0.02866227 -0.01317751       0.005
   0.02907242 -0.03002715 -0.01380502       0.005
   0.03039390 -0.03139203 -0.01443253       0.005
   0.03171537 -0.03275691 -0.01506003       0.005
   0.03303685 -0.03412179 -0.01568754       0.005
   0.03435832 -0.03548667 -0.01631505       0.005
   0.03567980 -0.03685155 -0.01694255       0.005
   0.03700128 -0.03821643 -0.01757006       0.005
   0.03832275 -0.03958131 -0.01819757       0.005
   0.03964423 -0.04094619 -0.01882507       0.005
   0.04096575 -0.04231085 -0.01945244       0.005
   0.04228723 -0.04367573 -0.02007995       0.005
   0.04360870 -0.04504061 -0.02070746       0.005
   0.04493018 -0.04640549 -0.02133496       0.005
   0.04625166 -0.04777037 -0.02196247       0.005
   0.04757313 -0.04913525 -0.02258998       0.005
   0.04889461 -0.05050013 -0.02321748       0.005
   0.05021608 -0.05186501 -0.02384499       0.005
   0.05153756 -0.05322989 -0.02447250       0.005
   0.05285904 -0.05459477 -0.02510000       0.005

 k-points in reciprocal lattice and weights: k-points along high symmetry lines      
   0.82271700  0.33864100  0.33864100       0.005
   0.80214900  0.33017500  0.33017500       0.005
   0.78158200  0.32170900  0.32170900       0.005
   0.76101400  0.31324300  0.31324300       0.005
   0.74044600  0.30477700  0.30477700       0.005
   0.71987800  0.29631100  0.29631100       0.005
   0.69931000  0.28784500  0.28784500       0.005
   0.67874200  0.27937900  0.27937900       0.005
   0.65817400  0.27091300  0.27091300       0.005
   0.63760600  0.26244700  0.26244700       0.005
   0.61703800  0.25398100  0.25398100       0.005
   0.59647000  0.24551500  0.24551500       0.005
   0.57590200  0.23704900  0.23704900       0.005
   0.55533400  0.22858300  0.22858300       0.005
   0.53476600  0.22011700  0.22011700       0.005
   0.51419800  0.21165100  0.21165100       0.005
   0.49363000  0.20318500  0.20318500       0.005
   0.47306300  0.19471900  0.19471900       0.005
   0.45249500  0.18625300  0.18625300       0.005
   0.43192700  0.17778700  0.17778700       0.005
   0.41135900  0.16932100  0.16932100       0.005
   0.39079100  0.16085500  0.16085500       0.005
   0.37022300  0.15238900  0.15238900       0.005
   0.34965500  0.14392300  0.14392300       0.005
   0.32908700  0.13545700  0.13545700       0.005
   0.30851900  0.12699000  0.12699000       0.005
   0.28795100  0.11852400  0.11852400       0.005
   0.26738300  0.11005800  0.11005800       0.005
   0.24681500  0.10159200  0.10159200       0.005
   0.22624700  0.09312600  0.09312600       0.005
   0.20567900  0.08466000  0.08466000       0.005
   0.18511100  0.07619400  0.07619400       0.005
   0.16454300  0.06772800  0.06772800       0.005
   0.14397600  0.05926200  0.05926200       0.005
   0.12340800  0.05079600  0.05079600       0.005
   0.10284000  0.04233000  0.04233000       0.005
   0.08227200  0.03386400  0.03386400       0.005
   0.06170400  0.02539800  0.02539800       0.005
   0.04113600  0.01693200  0.01693200       0.005
   0.02056800  0.00846600  0.00846600       0.005
  -0.00000000  0.00000000  0.00000000       0.005
   0.01250000  0.01250000  0.01250000       0.005
   0.02500000  0.02500000  0.02500000       0.005
   0.03750000  0.03750000  0.03750000       0.005
   0.05000000  0.05000000  0.05000000       0.005
   0.06250000  0.06250000  0.06250000       0.005
   0.07500000  0.07500000  0.07500000       0.005
   0.08750000  0.08750000  0.08750000       0.005
   0.10000000  0.10000000  0.10000000       0.005
   0.11250000  0.11250000  0.11250000       0.005
   0.12500000  0.12500000  0.12500000       0.005
   0.13750000  0.13750000  0.13750000       0.005
   0.15000000  0.15000000  0.15000000       0.005
   0.16250000  0.16250000  0.16250000       0.005
   0.17500000  0.17500000  0.17500000       0.005
   0.18750000  0.18750000  0.18750000       0.005
   0.20000000  0.20000000  0.20000000       0.005
   0.21250000  0.21250000  0.21250000       0.005
   0.22500000  0.22500000  0.22500000       0.005
   0.23750000  0.23750000  0.23750000       0.005
   0.25000000  0.25000000  0.25000000       0.005
   0.26250000  0.26250000  0.26250000       0.005
   0.27500000  0.27500000  0.27500000       0.005
   0.28750000  0.28750000  0.28750000       0.005
   0.30000000  0.30000000  0.30000000       0.005
   0.31250000  0.31250000  0.31250000       0.005
   0.32500000  0.32500000  0.32500000       0.005
   0.33750000  0.33750000  0.33750000       0.005
   0.35000000  0.35000000  0.35000000       0.005
   0.36250000  0.36250000  0.36250000       0.005
   0.37500000  0.37500000  0.37500000       0.005
   0.38750000  0.38750000  0.38750000       0.005
   0.40000000  0.40000000  0.40000000       0.005
   0.41250000  0.41250000  0.41250000       0.005
   0.42500000  0.42500000  0.42500000       0.005
   0.43750000  0.43750000  0.43750000       0.005
   0.45000000  0.45000000  0.45000000       0.005
   0.46250000  0.46250000  0.46250000       0.005
   0.47500000  0.47500000  0.47500000       0.005
   0.48750000  0.48750000  0.48750000       0.005
   0.50000000  0.50000000  0.50000000       0.005
   0.50000000  0.50000000  0.48750000       0.005
   0.50000000  0.50000000  0.47500000       0.005
   0.50000000  0.50000000  0.46250000       0.005
   0.50000000  0.50000000  0.45000000       0.005
   0.50000000  0.50000000  0.43750000       0.005
   0.50000000  0.50000000  0.42500000       0.005
   0.50000000  0.50000000  0.41250000       0.005
   0.50000000  0.50000000  0.40000000       0.005
   0.50000000  0.50000000  0.38750000       0.005
   0.50000000  0.50000000  0.37500000       0.005
   0.50000000  0.50000000  0.36250000       0.005
   0.50000000  0.50000000  0.35000000       0.005
   0.50000000  0.50000000  0.33750000       0.005
   0.50000000  0.50000000  0.32500000       0.005
   0.50000000  0.50000000  0.31250000       0.005
   0.50000000  0.50000000  0.30000000       0.005
   0.50000000  0.50000000  0.28750000       0.005
   0.50000000  0.50000000  0.27500000       0.005
   0.50000000  0.50000000  0.26250000       0.005
   0.50000000  0.50000000  0.25000000       0.005
   0.50000000  0.50000000  0.23750000       0.005
   0.50000000  0.50000000  0.22500000       0.005
   0.50000000  0.50000000  0.21250000       0.005
   0.50000000  0.50000000  0.20000000       0.005
   0.50000000  0.50000000  0.18750000       0.005
   0.50000000  0.50000000  0.17500000       0.005
   0.50000000  0.50000000  0.16250000       0.005
   0.50000000  0.50000000  0.15000000       0.005
   0.50000000  0.50000000  0.13750000       0.005
   0.50000000  0.50000000  0.12500000       0.005
   0.50000000  0.50000000  0.11250000       0.005
   0.50000000  0.50000000  0.10000000       0.005
   0.50000000  0.50000000  0.08750000       0.005
   0.50000000  0.50000000  0.07500000       0.005
   0.50000000  0.50000000  0.06250000       0.005
   0.50000000  0.50000000  0.05000000       0.005
   0.50000000  0.50000000  0.03750000       0.005
   0.50000000  0.50000000  0.02500000       0.005
   0.50000000  0.50000000  0.01250000       0.005
   0.50000000  0.50000000  0.00000000       0.005
   0.48750000  0.48750000  0.00000000       0.005
   0.47500000  0.47500000  0.00000000       0.005
   0.46250000  0.46250000  0.00000000       0.005
   0.45000000  0.45000000  0.00000000       0.005
   0.43750000  0.43750000  0.00000000       0.005
   0.42500000  0.42500000  0.00000000       0.005
   0.41250000  0.41250000  0.00000000       0.005
   0.40000000  0.40000000  0.00000000       0.005
   0.38750000  0.38750000  0.00000000       0.005
   0.37500000  0.37500000  0.00000000       0.005
   0.36250000  0.36250000  0.00000000       0.005
   0.35000000  0.35000000  0.00000000       0.005
   0.33750000  0.33750000  0.00000000       0.005
   0.32500000  0.32500000  0.00000000       0.005
   0.31250000  0.31250000  0.00000000       0.005
   0.30000000  0.30000000  0.00000000       0.005
   0.28750000  0.28750000  0.00000000       0.005
   0.27500000  0.27500000  0.00000000       0.005
   0.26250000  0.26250000  0.00000000       0.005
   0.25000000  0.25000000  0.00000000       0.005
   0.23750000  0.23750000  0.00000000       0.005
   0.22500000  0.22500000  0.00000000       0.005
   0.21250000  0.21250000  0.00000000       0.005
   0.20000000  0.20000000  0.00000000       0.005
   0.18750000  0.18750000  0.00000000       0.005
   0.17500000  0.17500000  0.00000000       0.005
   0.16250000  0.16250000  0.00000000       0.005
   0.15000000  0.15000000  0.00000000       0.005
   0.13750000  0.13750000  0.00000000       0.005
   0.12500000  0.12500000  0.00000000       0.005
   0.11250000  0.11250000  0.00000000       0.005
   0.10000000  0.10000000  0.00000000       0.005
   0.08750000  0.08750000  0.00000000       0.005
   0.07500000  0.07500000  0.00000000       0.005
   0.06250000  0.06250000  0.00000000       0.005
   0.05000000  0.05000000  0.00000000       0.005
   0.03750000  0.03750000  0.00000000       0.005
   0.02500000  0.02500000  0.00000000       0.005
   0.01250000  0.01250000  0.00000000       0.005
  -0.00000000  0.00000000  0.00000000       0.005
   0.01653400  0.01048300  0.01048300       0.005
   0.03306800  0.02096600  0.02096600       0.005
   0.04960200  0.03144900  0.03144900       0.005
   0.06613600  0.04193200  0.04193200       0.005
   0.08267000  0.05241500  0.05241500       0.005
   0.09920400  0.06289800  0.06289800       0.005
   0.11573800  0.07338100  0.07338100       0.005
   0.13227200  0.08386400  0.08386400       0.005
   0.14880600  0.09434700  0.09434700       0.005
   0.16534000  0.10483000  0.10483000       0.005
   0.18187400  0.11531300  0.11531300       0.005
   0.19840800  0.12579600  0.12579600       0.005
   0.21494200  0.13627900  0.13627900       0.005
   0.23147600  0.14676200  0.14676200       0.005
   0.24801000  0.15724500  0.15724500       0.005
   0.26454300  0.16772800  0.16772800       0.005
   0.28107700  0.17821100  0.17821100       0.005
   0.29761100  0.18869400  0.18869400       0.005
   0.31414500  0.19917700  0.19917700       0.005
   0.33067900  0.20966000  0.20966000       0.005
   0.34721300  0.22014300  0.22014300       0.005
   0.36374700  0.23062600  0.23062600       0.005
   0.38028100  0.24110900  0.24110900       0.005
   0.39681500  0.25159200  0.25159200       0.005
   0.41334900  0.26207500  0.26207500       0.005
   0.42988300  0.27255800  0.27255800       0.005
   0.44641700  0.28304100  0.28304100       0.005
   0.46295100  0.29352400  0.29352400       0.005
   0.47948500  0.30400700  0.30400700       0.005
   0.49601900  0.31449000  0.31449000       0.005
   0.51255300  0.32497400  0.32497400       0.005
   0.52908700  0.33545700  0.33545700       0.005
   0.54562100  0.34594000  0.34594000       0.005
   0.56215500  0.35642300  0.35642300       0.005
   0.57868900  0.36690600  0.36690600       0.005
   0.59522300  0.37738900  0.37738900       0.005
   0.61175700  0.38787200  0.38787200       0.005
   0.62829100  0.39835500  0.39835500       0.005
   0.64482500  0.40883800  0.40883800       0.005
   0.66135900  0.41932100  0.41932100       0.005

 position of ions in fractional coordinates (direct lattice) 
   0.39979833  0.39979833  0.39979833
   0.60020167  0.60020167  0.60020167
   0.00000000  0.00000000  0.00000000
   0.21048582  0.21048582  0.21048582
   0.78951418  0.78951418  0.78951418

 position of ions in cartesian coordinates  (Angst):
  12.06837915  0.00000000  1.52290741
  18.11778784  0.00000000  2.28628161
   0.00000000  0.00000000  0.00000000
   6.35376011  0.00000000  0.80178027
  23.83240688  0.00000000  3.00740875

 Euler angles ALPHA=     0.0000000  BETA=     0.0000000

 transformation matrix from SAXIS to cartesian coordinates
 ---------------------------------------------------------
     1.0000000 m_x    -0.0000000 m_y     0.0000000 m_z
     0.0000000 m_x     1.0000000 m_y     0.0000000 m_z
    -0.0000000 m_x     0.0000000 m_y     1.0000000 m_z

 transformation matrix from cartesian coordinates to SAXIS
 ---------------------------------------------------------
     1.0000000 m_x     0.0000000 m_y    -0.0000000 m_z
    -0.0000000 m_x     1.0000000 m_y     0.0000000 m_z
     0.0000000 m_x     0.0000000 m_y     1.0000000 m_z




--------------------------------------------------------------------------------------------------------


 k-point  1 :   0.8227 0.3386 0.3386  plane waves:   11530
 k-point  2 :   0.8021 0.3302 0.3302  plane waves:   11526
 k-point  3 :   0.7816 0.3217 0.3217  plane waves:   11544
 k-point  4 :   0.7610 0.3132 0.3132  plane waves:   11550
 k-point  5 :   0.7404 0.3048 0.3048  plane waves:   11546
 k-point  6 :   0.7199 0.2963 0.2963  plane waves:   11556
 k-point  7 :   0.6993 0.2878 0.2878  plane waves:   11532
 k-point  8 :   0.6787 0.2794 0.2794  plane waves:   11540
 k-point  9 :   0.6582 0.2709 0.2709  plane waves:   11552
 k-point 10 :   0.6376 0.2624 0.2624  plane waves:   11538
 k-point 11 :   0.6170 0.2540 0.2540  plane waves:   11554
 k-point 12 :   0.5965 0.2455 0.2455  plane waves:   11542
 k-point 13 :   0.5759 0.2370 0.2370  plane waves:   11532
 k-point 14 :   0.5553 0.2286 0.2286  plane waves:   11522
 k-point 15 :   0.5348 0.2201 0.2201  plane waves:   11514
 k-point 16 :   0.5142 0.2117 0.2117  plane waves:   11514
 k-point 17 :   0.4936 0.2032 0.2032  plane waves:   11518
 k-point 18 :   0.4731 0.1947 0.1947  plane waves:   11516
 k-point 19 :   0.4525 0.1863 0.1863  plane waves:   11514
 k-point 20 :   0.4319 0.1778 0.1778  plane waves:   11514
 k-point 21 :   0.4114 0.1693 0.1693  plane waves:   11502
 k-point 22 :   0.3908 0.1609 0.1609  plane waves:   11480
 k-point 23 :   0.3702 0.1524 0.1524  plane waves:   11488
 k-point 24 :   0.3497 0.1439 0.1439  plane waves:   11488
 k-point 25 :   0.3291 0.1355 0.1355  plane waves:   11474
 k-point 26 :   0.3085 0.1270 0.1270  plane waves:   11488
 k-point 27 :   0.2880 0.1185 0.1185  plane waves:   11478
 k-point 28 :   0.2674 0.1101 0.1101  plane waves:   11466
 k-point 29 :   0.2468 0.1016 0.1016  plane waves:   11486
 k-point 30 :   0.2262 0.0931 0.0931  plane waves:   11488
 k-point 31 :   0.2057 0.0847 0.0847  plane waves:   11498
 k-point 32 :   0.1851 0.0762 0.0762  plane waves:   11512
 k-point 33 :   0.1645 0.0677 0.0677  plane waves:   11492
 k-point 34 :   0.1440 0.0593 0.0593  plane waves:   11490
 k-point 35 :   0.1234 0.0508 0.0508  plane waves:   11506
 k-point 36 :   0.1028 0.0423 0.0423  plane waves:   11508
 k-point 37 :   0.0823 0.0339 0.0339  plane waves:   11500
 k-point 38 :   0.0617 0.0254 0.0254  plane waves:   11504
 k-point 39 :   0.0411 0.0169 0.0169  plane waves:   11500
 k-point 40 :   0.0206 0.0085 0.0085  plane waves:   11496
 k-point 41 :  -0.0000 0.0000 0.0000  plane waves:   11482
 k-point 42 :   0.0125 0.0125 0.0125  plane waves:   11494
 k-point 43 :   0.0250 0.0250 0.0250  plane waves:   11488
 k-point 44 :   0.0375 0.0375 0.0375  plane waves:   11488
 k-point 45 :   0.0500 0.0500 0.0500  plane waves:   11488
 k-point 46 :   0.0625 0.0625 0.0625  plane waves:   11494
 k-point 47 :   0.0750 0.0750 0.0750  plane waves:   11500
 k-point 48 :   0.0875 0.0875 0.0875  plane waves:   11500
 k-point 49 :   0.1000 0.1000 0.1000  plane waves:   11500
 k-point 50 :   0.1125 0.1125 0.1125  plane waves:   11518
 k-point 51 :   0.1250 0.1250 0.1250  plane waves:   11518
 k-point 52 :   0.1375 0.1375 0.1375  plane waves:   11518
 k-point 53 :   0.1500 0.1500 0.1500  plane waves:   11518
 k-point 54 :   0.1625 0.1625 0.1625  plane waves:   11518
 k-point 55 :   0.1750 0.1750 0.1750  plane waves:   11518
 k-point 56 :   0.1875 0.1875 0.1875  plane waves:   11518
 k-point 57 :   0.2000 0.2000 0.2000  plane waves:   11518
 k-point 58 :   0.2125 0.2125 0.2125  plane waves:   11506
 k-point 59 :   0.2250 0.2250 0.2250  plane waves:   11488
 k-point 60 :   0.2375 0.2375 0.2375  plane waves:   11488
 k-point 61 :   0.2500 0.2500 0.2500  plane waves:   11488
 k-point 62 :   0.2625 0.2625 0.2625  plane waves:   11480
 k-point 63 :   0.2750 0.2750 0.2750  plane waves:   11492
 k-point 64 :   0.2875 0.2875 0.2875  plane waves:   11492
 k-point 65 :   0.3000 0.3000 0.3000  plane waves:   11492
 k-point 66 :   0.3125 0.3125 0.3125  plane waves:   11498
 k-point 67 :   0.3250 0.3250 0.3250  plane waves:   11522
 k-point 68 :   0.3375 0.3375 0.3375  plane waves:   11510
 k-point 69 :   0.3500 0.3500 0.3500  plane waves:   11498
 k-point 70 :   0.3625 0.3625 0.3625  plane waves:   11510
 k-point 71 :   0.3750 0.3750 0.3750  plane waves:   11510
 k-point 72 :   0.3875 0.3875 0.3875  plane waves:   11528
 k-point 73 :   0.4000 0.4000 0.4000  plane waves:   11546
 k-point 74 :   0.4125 0.4125 0.4125  plane waves:   11558
 k-point 75 :   0.4250 0.4250 0.4250  plane waves:   11552
 k-point 76 :   0.4375 0.4375 0.4375  plane waves:   11552
 k-point 77 :   0.4500 0.4500 0.4500  plane waves:   11564
 k-point 78 :   0.4625 0.4625 0.4625  plane waves:   11600
 k-point 79 :   0.4750 0.4750 0.4750  plane waves:   11600
 k-point 80 :   0.4875 0.4875 0.4875  plane waves:   11600
 k-point 81 :   0.5000 0.5000 0.5000  plane waves:   11600
 k-point 82 :   0.5000 0.5000 0.4875  plane waves:   11568
 k-point 83 :   0.5000 0.5000 0.4750  plane waves:   11558
 k-point 84 :   0.5000 0.5000 0.4625  plane waves:   11536
 k-point 85 :   0.5000 0.5000 0.4500  plane waves:   11530
 k-point 86 :   0.5000 0.5000 0.4375  plane waves:   11510
 k-point 87 :   0.5000 0.5000 0.4250  plane waves:   11498
 k-point 88 :   0.5000 0.5000 0.4125  plane waves:   11498
 k-point 89 :   0.5000 0.5000 0.4000  plane waves:   11480
 k-point 90 :   0.5000 0.5000 0.3875  plane waves:   11472
 k-point 91 :   0.5000 0.5000 0.3750  plane waves:   11492
 k-point 92 :   0.5000 0.5000 0.3625  plane waves:   11488
 k-point 93 :   0.5000 0.5000 0.3500  plane waves:   11484
 k-point 94 :   0.5000 0.5000 0.3375  plane waves:   11468
 k-point 95 :   0.5000 0.5000 0.3250  plane waves:   11500
 k-point 96 :   0.5000 0.5000 0.3125  plane waves:   11514
 k-point 97 :   0.5000 0.5000 0.3000  plane waves:   11510
 k-point 98 :   0.5000 0.5000 0.2875  plane waves:   11516
 k-point 99 :   0.5000 0.5000 0.2750  plane waves:   11514
 k-point ** :   0.5000 0.5000 0.2625  plane waves:   11510
 k-point ** :   0.5000 0.5000 0.2500  plane waves:   11502
 k-point ** :   0.5000 0.5000 0.2375  plane waves:   11508
 k-point ** :   0.5000 0.5000 0.2250  plane waves:   11512
 k-point ** :   0.5000 0.5000 0.2125  plane waves:   11516
 k-point ** :   0.5000 0.5000 0.2000  plane waves:   11530
 k-point ** :   0.5000 0.5000 0.1875  plane waves:   11542
 k-point ** :   0.5000 0.5000 0.1750  plane waves:   11542
 k-point ** :   0.5000 0.5000 0.1625  plane waves:   11530
 k-point ** :   0.5000 0.5000 0.1500  plane waves:   11534
 k-point ** :   0.5000 0.5000 0.1375  plane waves:   11546
 k-point ** :   0.5000 0.5000 0.1250  plane waves:   11550
 k-point ** :   0.5000 0.5000 0.1125  plane waves:   11530
 k-point ** :   0.5000 0.5000 0.1000  plane waves:   11540
 k-point ** :   0.5000 0.5000 0.0875  plane waves:   11536
 k-point ** :   0.5000 0.5000 0.0750  plane waves:   11544
 k-point ** :   0.5000 0.5000 0.0625  plane waves:   11526
 k-point ** :   0.5000 0.5000 0.0500  plane waves:   11518
 k-point ** :   0.5000 0.5000 0.0375  plane waves:   11526
 k-point ** :   0.5000 0.5000 0.0250  plane waves:   11526
 k-point ** :   0.5000 0.5000 0.0125  plane waves:   11540
 k-point ** :   0.5000 0.5000 0.0000  plane waves:   11532
 k-point ** :   0.4875 0.4875 0.0000  plane waves:   11548
 k-point ** :   0.4750 0.4750 0.0000  plane waves:   11542
 k-point ** :   0.4625 0.4625 0.0000  plane waves:   11538
 k-point ** :   0.4500 0.4500 0.0000  plane waves:   11526
 k-point ** :   0.4375 0.4375 0.0000  plane waves:   11526
 k-point ** :   0.4250 0.4250 0.0000  plane waves:   11534
 k-point ** :   0.4125 0.4125 0.0000  plane waves:   11524
 k-point ** :   0.4000 0.4000 0.0000  plane waves:   11528
 k-point ** :   0.3875 0.3875 0.0000  plane waves:   11530
 k-point ** :   0.3750 0.3750 0.0000  plane waves:   11522
 k-point ** :   0.3625 0.3625 0.0000  plane waves:   11516
 k-point ** :   0.3500 0.3500 0.0000  plane waves:   11510
 k-point ** :   0.3375 0.3375 0.0000  plane waves:   11514
 k-point ** :   0.3250 0.3250 0.0000  plane waves:   11512
 k-point ** :   0.3125 0.3125 0.0000  plane waves:   11504
 k-point ** :   0.3000 0.3000 0.0000  plane waves:   11498
 k-point ** :   0.2875 0.2875 0.0000  plane waves:   11486
 k-point ** :   0.2750 0.2750 0.0000  plane waves:   11482
 k-point ** :   0.2625 0.2625 0.0000  plane waves:   11494
 k-point ** :   0.2500 0.2500 0.0000  plane waves:   11492
 k-point ** :   0.2375 0.2375 0.0000  plane waves:   11520
 k-point ** :   0.2250 0.2250 0.0000  plane waves:   11494
 k-point ** :   0.2125 0.2125 0.0000  plane waves:   11504
 k-point ** :   0.2000 0.2000 0.0000  plane waves:   11504
 k-point ** :   0.1875 0.1875 0.0000  plane waves:   11508
 k-point ** :   0.1750 0.1750 0.0000  plane waves:   11500
 k-point ** :   0.1625 0.1625 0.0000  plane waves:   11480
 k-point ** :   0.1500 0.1500 0.0000  plane waves:   11480
 k-point ** :   0.1375 0.1375 0.0000  plane waves:   11498
 k-point ** :   0.1250 0.1250 0.0000  plane waves:   11502
 k-point ** :   0.1125 0.1125 0.0000  plane waves:   11518
 k-point ** :   0.1000 0.1000 0.0000  plane waves:   11526
 k-point ** :   0.0875 0.0875 0.0000  plane waves:   11530
 k-point ** :   0.0750 0.0750 0.0000  plane waves:   11534
 k-point ** :   0.0625 0.0625 0.0000  plane waves:   11514
 k-point ** :   0.0500 0.0500 0.0000  plane waves:   11502
 k-point ** :   0.0375 0.0375 0.0000  plane waves:   11502
 k-point ** :   0.0250 0.0250 0.0000  plane waves:   11506
 k-point ** :   0.0125 0.0125 0.0000  plane waves:   11498
 k-point ** :  -0.0000 0.0000 0.0000  plane waves:   11482
 k-point ** :   0.0165 0.0105 0.0105  plane waves:   11490
 k-point ** :   0.0331 0.0210 0.0210  plane waves:   11492
 k-point ** :   0.0496 0.0314 0.0314  plane waves:   11494
 k-point ** :   0.0661 0.0419 0.0419  plane waves:   11498
 k-point ** :   0.0827 0.0524 0.0524  plane waves:   11510
 k-point ** :   0.0992 0.0629 0.0629  plane waves:   11494
 k-point ** :   0.1157 0.0734 0.0734  plane waves:   11500
 k-point ** :   0.1323 0.0839 0.0839  plane waves:   11504
 k-point ** :   0.1488 0.0943 0.0943  plane waves:   11516
 k-point ** :   0.1653 0.1048 0.1048  plane waves:   11512
 k-point ** :   0.1819 0.1153 0.1153  plane waves:   11508
 k-point ** :   0.1984 0.1258 0.1258  plane waves:   11500
 k-point ** :   0.2149 0.1363 0.1363  plane waves:   11496
 k-point ** :   0.2315 0.1468 0.1468  plane waves:   11496
 k-point ** :   0.2480 0.1572 0.1572  plane waves:   11484
 k-point ** :   0.2645 0.1677 0.1677  plane waves:   11480
 k-point ** :   0.2811 0.1782 0.1782  plane waves:   11482
 k-point ** :   0.2976 0.1887 0.1887  plane waves:   11492
 k-point ** :   0.3141 0.1992 0.1992  plane waves:   11492
 k-point ** :   0.3307 0.2097 0.2097  plane waves:   11476
 k-point ** :   0.3472 0.2201 0.2201  plane waves:   11462
 k-point ** :   0.3637 0.2306 0.2306  plane waves:   11458
 k-point ** :   0.3803 0.2411 0.2411  plane waves:   11464
 k-point ** :   0.3968 0.2516 0.2516  plane waves:   11470
 k-point ** :   0.4133 0.2621 0.2621  plane waves:   11474
 k-point ** :   0.4299 0.2726 0.2726  plane waves:   11464
 k-point ** :   0.4464 0.2830 0.2830  plane waves:   11458
 k-point ** :   0.4630 0.2935 0.2935  plane waves:   11462
 k-point ** :   0.4795 0.3040 0.3040  plane waves:   11478
 k-point ** :   0.4960 0.3145 0.3145  plane waves:   11494
 k-point ** :   0.5126 0.3250 0.3250  plane waves:   11494
 k-point ** :   0.5291 0.3355 0.3355  plane waves:   11498
 k-point ** :   0.5456 0.3459 0.3459  plane waves:   11512
 k-point ** :   0.5622 0.3564 0.3564  plane waves:   11512
 k-point ** :   0.5787 0.3669 0.3669  plane waves:   11512
 k-point ** :   0.5952 0.3774 0.3774  plane waves:   11504
 k-point ** :   0.6118 0.3879 0.3879  plane waves:   11502
 k-point ** :   0.6283 0.3984 0.3984  plane waves:   11506
 k-point ** :   0.6448 0.4088 0.4088  plane waves:   11514
 k-point ** :   0.6614 0.4193 0.4193  plane waves:   11500

 maximum and minimum number of plane-waves per node :      5808     5710

 maximum number of plane-waves:     11600
 maximum index in each direction: 
   IXMAX=   20   IYMAX=   20   IZMAX=   20
   IXMIN=  -21   IYMIN=  -21   IZMIN=  -21


 parallel 3D FFT for wavefunctions:
    minimum data exchange during FFTs selected (reduces bandwidth)
 parallel 3D FFT for charge:
    minimum data exchange during FFTs selected (reduces bandwidth)


 total amount of memory used by VASP MPI-rank0  1763920. kBytes
=======================================================================

   base      :      30000. kBytes
   nonl-proj :     121642. kBytes
   fftplans  :     182238. kBytes
   grid      :     180182. kBytes
   one-center:         97. kBytes
   wavefun   :    1249761. kBytes

     INWAV:  cpu time    0.0000: real time    0.0001
 initial charge density was supplied:
 number of electron      28.0000001 magnetization      -0.0000580     -0.0000594     -0.0000590
 keeping initial charge density in first step


--------------------------------------------------------------------------------------------------------


 Maximum index for augmentation-charges       317341 (set IRDMAX)


--------------------------------------------------------------------------------------------------------


 First call to EWALD:  gamma=   0.318
 Maximum number of real-space cells 4x 4x 4
 Maximum number of reciprocal cells 5x 5x 5

    FEWALD:  cpu time    0.0012: real time    0.0012


--------------------------------------- Iteration      1(   1)  ---------------------------------------


    POTLOK:  cpu time    4.4211: real time    4.4852
    SETDIJ:  cpu time    6.9759: real time    7.3173
    TRIAL :  cpu time  909.4489: real time  954.6993
    CORREC:  cpu time    0.0069: real time    0.0069
    --------------------------------------------
      LOOP:  cpu time  921.4080: real time  967.0779

 eigenvalue-minimisations  : 35376
 total energy-change (2. order) : 0.1281079E+03  (-0.1465723E+04)
 number of electron      28.0000001 magnetization      -0.0000580     -0.0000594     -0.0000590
 augmentation part       28.0000001 magnetization      -0.0000580     -0.0000594     -0.0000590

 Free energy of the ion-electron system (eV)
  ---------------------------------------------------
  alpha Z        PSCENC =         5.99831677
  Ewald energy   TEWEN  =      -983.58522533
  -Hartree energ DENC   =       -59.98562904
  -exchange      EXHF   =         0.00000000
  -V(xc)+E(xc)   XCENC  =      -303.85049003
  PAW double counting   =      1910.19755357    -1561.17602897
  entropy T*S    EENTRO =        -0.00020376
  eigenvalues    EBANDS =       149.06814092
  atomic energy  EATOM  =       971.44149227
  ---------------------------------------------------
  free energy    TOTEN  =       128.10792641 eV

  energy without entropy =      128.10813017  energy(sigma->0) =      128.10802829


--------------------------------------------------------------------------------------------------------




--------------------------------------- Iteration      1(   2)  ---------------------------------------


    TRIAL :  cpu time 1110.4970: real time 1186.1440
    CORREC:  cpu time    0.1312: real time    0.1313
    --------------------------------------------
      LOOP:  cpu time 1110.6285: real time 1186.2756

 eigenvalue-minimisations  : 43880
 total energy-change (2. order) :-0.1267795E+03  (-0.1157601E+03)
 number of electron      28.0000001 magnetization      -0.0000580     -0.0000594     -0.0000590
 augmentation part       28.0000001 magnetization      -0.0000580     -0.0000594     -0.0000590

 Free energy of the ion-electron system (eV)
  ---------------------------------------------------
  alpha Z        PSCENC =         5.99831677
  Ewald energy   TEWEN  =      -983.58522533
  -Hartree energ DENC   =       -59.98562904
  -exchange      EXHF   =         0.00000000
  -V(xc)+E(xc)   XCENC  =      -303.85049003
  PAW double counting   =      1910.19755357    -1561.17602897
  entropy T*S    EENTRO =        -0.00009639
  eigenvalues    EBANDS =        22.28855220
  atomic energy  EATOM  =       971.44149227
  ---------------------------------------------------
  free energy    TOTEN  =         1.32844505 eV

  energy without entropy =        1.32854145  energy(sigma->0) =        1.32849325


--------------------------------------------------------------------------------------------------------




--------------------------------------- Iteration      1(   3)  ---------------------------------------


    TRIAL :  cpu time 1096.4317: real time 1170.0450
    CORREC:  cpu time    0.0023: real time    0.0023
    --------------------------------------------
      LOOP:  cpu time 1096.4396: real time 1170.0529

 eigenvalue-minimisations  : 41808
 total energy-change (2. order) :-0.1148408E+02  (-0.1120590E+02)
 number of electron      28.0000001 magnetization      -0.0000580     -0.0000594     -0.0000590
 augmentation part       28.0000001 magnetization      -0.0000580     -0.0000594     -0.0000590

 Free energy of the ion-electron system (eV)
  ---------------------------------------------------
  alpha Z        PSCENC =         5.99831677
  Ewald energy   TEWEN  =      -983.58522533
  -Hartree energ DENC   =       -59.98562904
  -exchange      EXHF   =         0.00000000
  -V(xc)+E(xc)   XCENC  =      -303.85049003
  PAW double counting   =      1910.19755357    -1561.17602897
  entropy T*S    EENTRO =        -0.00000000
  eigenvalues    EBANDS =        10.80437906
  atomic energy  EATOM  =       971.44149227
  ---------------------------------------------------
  free energy    TOTEN  =       -10.15563169 eV

  energy without entropy =      -10.15563169  energy(sigma->0) =      -10.15563169


--------------------------------------------------------------------------------------------------------




--------------------------------------- Iteration      1(   4)  ---------------------------------------


    TRIAL :  cpu time 1220.2043: real time 1287.5960
    CORREC:  cpu time    0.0023: real time    0.0023
    --------------------------------------------
      LOOP:  cpu time 1220.2069: real time 1287.5986

 eigenvalue-minimisations  : 42880
 total energy-change (2. order) :-0.3041901E+00  (-0.3039059E+00)
 number of electron      28.0000001 magnetization      -0.0000580     -0.0000594     -0.0000590
 augmentation part       28.0000001 magnetization      -0.0000580     -0.0000594     -0.0000590

 Free energy of the ion-electron system (eV)
  ---------------------------------------------------
  alpha Z        PSCENC =         5.99831677
  Ewald energy   TEWEN  =      -983.58522533
  -Hartree energ DENC   =       -59.98562904
  -exchange      EXHF   =         0.00000000
  -V(xc)+E(xc)   XCENC  =      -303.85049003
  PAW double counting   =      1910.19755357    -1561.17602897
  entropy T*S    EENTRO =        -0.00000000
  eigenvalues    EBANDS =        10.50018896
  atomic energy  EATOM  =       971.44149227
  ---------------------------------------------------
  free energy    TOTEN  =       -10.45982180 eV

  energy without entropy =      -10.45982180  energy(sigma->0) =      -10.45982180


--------------------------------------------------------------------------------------------------------




--------------------------------------- Iteration      1(   5)  ---------------------------------------


    TRIAL :  cpu time  922.4693: real time  953.1851
    CORREC:  cpu time    0.0023: real time    0.0023
    --------------------------------------------
      LOOP:  cpu time  922.4719: real time  953.1877

 eigenvalue-minimisations  : 40960
 total energy-change (2. order) :-0.6992949E-02  (-0.6992524E-02)
 number of electron      28.0000001 magnetization      -0.0000580     -0.0000594     -0.0000590
 augmentation part       28.0000001 magnetization      -0.0000580     -0.0000594     -0.0000590

 Free energy of the ion-electron system (eV)
  ---------------------------------------------------
  alpha Z        PSCENC =         5.99831677
  Ewald energy   TEWEN  =      -983.58522533
  -Hartree energ DENC   =       -59.98562904
  -exchange      EXHF   =         0.00000000
  -V(xc)+E(xc)   XCENC  =      -303.85049003
  PAW double counting   =      1910.19755357    -1561.17602897
  entropy T*S    EENTRO =        -0.00000000
  eigenvalues    EBANDS =        10.49319601
  atomic energy  EATOM  =       971.44149227
  ---------------------------------------------------
  free energy    TOTEN  =       -10.46681475 eV

  energy without entropy =      -10.46681475  energy(sigma->0) =      -10.46681475


--------------------------------------------------------------------------------------------------------




--------------------------------------- Iteration      1(   6)  ---------------------------------------


    TRIAL :  cpu time  618.9059: real time  634.4677
    CORREC:  cpu time  140.6625: real time  146.5615
    --------------------------------------------
      LOOP:  cpu time  759.5687: real time  781.0295

 eigenvalue-minimisations  :     0
 total energy-change (2. order) :-0.1364242E-11  (-0.2487873E-03)
 number of electron      28.0000001 magnetization      -0.0000580     -0.0000594     -0.0000590
 augmentation part       28.0000001 magnetization      -0.0000580     -0.0000594     -0.0000590

 Free energy of the ion-electron system (eV)
  ---------------------------------------------------
  alpha Z        PSCENC =         5.99831677
  Ewald energy   TEWEN  =      -983.58522533
  -Hartree energ DENC   =       -59.98562904
  -exchange      EXHF   =         0.00000000
  -V(xc)+E(xc)   XCENC  =      -303.85049003
  PAW double counting   =      1910.19755357    -1561.17602897
  entropy T*S    EENTRO =        -0.00000000
  eigenvalues    EBANDS =        10.49319601
  atomic energy  EATOM  =       971.44149227
  ---------------------------------------------------
  free energy    TOTEN  =       -10.46681475 eV

  energy without entropy =      -10.46681475  energy(sigma->0) =      -10.46681475


--------------------------------------------------------------------------------------------------------




--------------------------------------- Iteration      1(   7)  ---------------------------------------


    TRIAL :  cpu time  650.5155: real time  668.7112
    CORREC:  cpu time  145.6540: real time  152.2004
    --------------------------------------------
      LOOP:  cpu time  796.1870: real time  820.9291

 eigenvalue-minimisations  :     0
 total energy-change (2. order) :-0.2487872E-03  (-0.6827766E-04)
 number of electron      28.0000001 magnetization      -0.0000580     -0.0000594     -0.0000590
 augmentation part       28.0000001 magnetization      -0.0000580     -0.0000594     -0.0000590

 Free energy of the ion-electron system (eV)
  ---------------------------------------------------
  alpha Z        PSCENC =         5.99831677
  Ewald energy   TEWEN  =      -983.58522533
  -Hartree energ DENC   =       -59.98562904
  -exchange      EXHF   =         0.00000000
  -V(xc)+E(xc)   XCENC  =      -303.85049003
  PAW double counting   =      1910.19755357    -1561.17602897
  entropy T*S    EENTRO =        -0.00000000
  eigenvalues    EBANDS =        10.49294722
  atomic energy  EATOM  =       971.44149227
  ---------------------------------------------------
  free energy    TOTEN  =       -10.46706353 eV

  energy without entropy =      -10.46706353  energy(sigma->0) =      -10.46706353


--------------------------------------------------------------------------------------------------------




--------------------------------------- Iteration      1(   8)  ---------------------------------------


    TRIAL :  cpu time  635.4457: real time  661.3198
    CORREC:  cpu time  143.4752: real time  147.2259
    --------------------------------------------
      LOOP:  cpu time  778.9212: real time  808.5460

 eigenvalue-minimisations  :     0
 total energy-change (2. order) :-0.6827744E-04  (-0.2179417E-04)
 number of electron      28.0000001 magnetization      -0.0000580     -0.0000594     -0.0000590
 augmentation part       28.0000001 magnetization      -0.0000580     -0.0000594     -0.0000590

 Free energy of the ion-electron system (eV)
  ---------------------------------------------------
  alpha Z        PSCENC =         5.99831677
  Ewald energy   TEWEN  =      -983.58522533
  -Hartree energ DENC   =       -59.98562904
  -exchange      EXHF   =         0.00000000
  -V(xc)+E(xc)   XCENC  =      -303.85049003
  PAW double counting   =      1910.19755357    -1561.17602897
  entropy T*S    EENTRO =        -0.00000000
  eigenvalues    EBANDS =        10.49287894
  atomic energy  EATOM  =       971.44149227
  ---------------------------------------------------
  free energy    TOTEN  =       -10.46713181 eV

  energy without entropy =      -10.46713181  energy(sigma->0) =      -10.46713181


--------------------------------------------------------------------------------------------------------




--------------------------------------- Iteration      1(   9)  ---------------------------------------


    TRIAL :  cpu time  615.4936: real time  632.6217
    CORREC:  cpu time  144.6766: real time  147.6846
    --------------------------------------------
      LOOP:  cpu time  760.1818: real time  780.3179

 eigenvalue-minimisations  :     0
 total energy-change (2. order) :-0.2179400E-04  (-0.1635776E-05)
 number of electron      28.0000001 magnetization      -0.0000580     -0.0000594     -0.0000590
 augmentation part       28.0000001 magnetization      -0.0000580     -0.0000594     -0.0000590

 Free energy of the ion-electron system (eV)
  ---------------------------------------------------
  alpha Z        PSCENC =         5.99831677
  Ewald energy   TEWEN  =      -983.58522533
  -Hartree energ DENC   =       -59.98562904
  -exchange      EXHF   =         0.00000000
  -V(xc)+E(xc)   XCENC  =      -303.85049003
  PAW double counting   =      1910.19755357    -1561.17602897
  entropy T*S    EENTRO =        -0.00000000
  eigenvalues    EBANDS =        10.49285715
  atomic energy  EATOM  =       971.44149227
  ---------------------------------------------------
  free energy    TOTEN  =       -10.46715361 eV

  energy without entropy =      -10.46715361  energy(sigma->0) =      -10.46715361


--------------------------------------------------------------------------------------------------------




--------------------------------------- Iteration      1(  10)  ---------------------------------------


    TRIAL :  cpu time  619.8766: real time  641.3764
    CORREC:  cpu time  143.2238: real time  147.1138
    --------------------------------------------
      LOOP:  cpu time  763.1701: real time  788.5599

 eigenvalue-minimisations  :     0
 total energy-change (2. order) :-0.1635769E-05  (-0.1396472E-06)
 number of electron      28.0000001 magnetization      -0.0000580     -0.0000594     -0.0000590
 augmentation part       28.0000001 magnetization      -0.0000580     -0.0000594     -0.0000590

 Free energy of the ion-electron system (eV)
  ---------------------------------------------------
  alpha Z        PSCENC =         5.99831677
  Ewald energy   TEWEN  =      -983.58522533
  -Hartree energ DENC   =       -59.98562904
  -exchange      EXHF   =         0.00000000
  -V(xc)+E(xc)   XCENC  =      -303.85049003
  PAW double counting   =      1910.19755357    -1561.17602897
  entropy T*S    EENTRO =        -0.00000000
  eigenvalues    EBANDS =        10.49285551
  atomic energy  EATOM  =       971.44149227
  ---------------------------------------------------
  free energy    TOTEN  =       -10.46715524 eV

  energy without entropy =      -10.46715524  energy(sigma->0) =      -10.46715524


--------------------------------------------------------------------------------------------------------




--------------------------------------- Iteration      1(  11)  ---------------------------------------


    TRIAL :  cpu time  723.5899: real time  771.2634
    CORREC:  cpu time  145.6268: real time  149.8774
    --------------------------------------------
      LOOP:  cpu time  869.2170: real time  921.1410

 eigenvalue-minimisations  :     0
 total energy-change (2. order) :-0.1396463E-06  (-0.2689845E-07)
 number of electron      28.0000001 magnetization      -0.0000580     -0.0000594     -0.0000590
 augmentation part       28.0000001 magnetization      -0.0000580     -0.0000594     -0.0000590

 Free energy of the ion-electron system (eV)
  ---------------------------------------------------
  alpha Z        PSCENC =         5.99831677
  Ewald energy   TEWEN  =      -983.58522533
  -Hartree energ DENC   =       -59.98562904
  -exchange      EXHF   =         0.00000000
  -V(xc)+E(xc)   XCENC  =      -303.85049003
  PAW double counting   =      1910.19755357    -1561.17602897
  entropy T*S    EENTRO =        -0.00000000
  eigenvalues    EBANDS =        10.49285537
  atomic energy  EATOM  =       971.44149227
  ---------------------------------------------------
  free energy    TOTEN  =       -10.46715538 eV

  energy without entropy =      -10.46715538  energy(sigma->0) =      -10.46715538


--------------------------------------------------------------------------------------------------------




--------------------------------------- Iteration      1(  12)  ---------------------------------------


    TRIAL :  cpu time  610.6981: real time  624.5894
    CORREC:  cpu time  140.4641: real time  143.1868
    EDDIAG:  cpu time  234.3196: real time  238.8779
    --------------------------------------------
      LOOP:  cpu time  985.4822: real time 1006.6544

 eigenvalue-minimisations  :     0
 total energy-change (2. order) :-0.2689580E-07  (-0.6711447E-08)
 number of electron      28.0000001 magnetization      -0.0000580     -0.0000594     -0.0000590
 augmentation part       28.0000001 magnetization      -0.0000580     -0.0000594     -0.0000590

 Free energy of the ion-electron system (eV)
  ---------------------------------------------------
  alpha Z        PSCENC =         5.99831677
  Ewald energy   TEWEN  =      -983.58522533
  -Hartree energ DENC   =       -59.98562904
  -exchange      EXHF   =         0.00000000
  -V(xc)+E(xc)   XCENC  =      -303.85049003
  PAW double counting   =      1910.19755357    -1561.17602897
  entropy T*S    EENTRO =        -0.00000000
  eigenvalues    EBANDS =        10.49285535
  atomic energy  EATOM  =       971.44149227
  ---------------------------------------------------
  free energy    TOTEN  =       -10.46715541 eV

  energy without entropy =      -10.46715541  energy(sigma->0) =      -10.46715541


--------------------------------------------------------------------------------------------------------


  average scaling for gradient   1.3838


 average (electrostatic) potential at core
  the test charge radii are     1.4024  1.1897
  (the norm of the test charge is              1.0000)
       1 -61.7622       2 -61.7622       3 -88.6317       4 -88.8692       5 -88.8692



 E-fermi :   5.3959     XC(G=0):  -9.1625     alpha+bet :-10.3225


 k-point     1 :       0.8227    0.3386    0.3386
  band No.  band energies     occupation 
      1      -5.9594      1.00000
      2      -5.9594      1.00000
      3      -5.8613      1.00000
      4      -5.8613      1.00000
      5      -5.4241      1.00000
      6      -5.4241      1.00000
      7      -4.7792      1.00000
      8      -4.7792      1.00000
      9      -4.1840      1.00000
     10      -4.1840      1.00000
     11       0.5904      1.00000
     12       0.5904      1.00000
     13       1.3694      1.00000
     14       1.3694      1.00000
     15       1.6026      1.00000
     16       1.6026      1.00000
     17       2.3944      1.00000
     18       2.3944      1.00000
     19       2.6327      1.00000
     20       2.6327      1.00000
     21       3.3130      1.00000
     22       3.3130      1.00000
     23       3.7980      1.00000
     24       3.7980      1.00000
     25       4.4473      1.00000
     26       4.4474      1.00000
     27       4.5615      1.00000
     28       4.5615      1.00000
     29       6.3766      0.00000
     30       6.3766      0.00000
     31       6.9979      0.00000
     32       6.9979      0.00000
     33       7.4659      0.00000
     34       7.4659      0.00000
     35       7.8405      0.00000
     36       7.8405      0.00000
     37       8.6270      0.00000
     38       8.6270      0.00000
     39       9.1665      0.00000
     40       9.1665      0.00000
     41      10.3992      0.00000
     42      10.3992      0.00000
     43      10.7421      0.00000
     44      10.7421      0.00000
     45      12.4055      0.00000
     46      12.4055      0.00000
     47      13.7735      0.00000
     48      13.7735      0.00000
     49      14.0858      0.00000
     50      14.0858      0.00000
     51      14.3615      0.00000
     52      14.3615      0.00000
     53      14.4581      0.00000
     54      14.4582      0.00000
     55      14.8040      0.00000
     56      14.8041      0.00000
     57      14.9642      0.00000
     58      14.9642      0.00000
     59      15.4881      0.00000
     60      15.4882      0.00000
     61      15.8380      0.00000
     62      15.8380      0.00000
     63      15.9472      0.00000
     64      15.9472      0.00000
     65      16.1338      0.00000
     66      16.1338      0.00000
     67      16.3031      0.00000
     68      16.3031      0.00000
     69      16.4702      0.00000
     70      16.4702      0.00000
     71      17.0503      0.00000
     72      17.0503      0.00000
     73      17.3405      0.00000
     74      17.3405      0.00000
     75      17.6234      0.00000
     76      17.6234      0.00000
     77      17.7403      0.00000
     78      17.7403      0.00000
     79      18.3627      0.00000
     80      18.3629      0.00000
     81      18.5087      0.00000
     82      18.5089      0.00000
     83      18.9803      0.00000
     84      18.9845      0.00000
     85      19.1935      0.00000
     86      19.2171      0.00000
     87      19.2821      0.00000
     88      19.3850      0.00000

 k-point     2 :       0.8021    0.3302    0.3302
  band No.  band energies     occupation 
      1      -5.9981      1.00000
      2      -5.9981      1.00000
      3      -5.8558      1.00000
      4      -5.8558      1.00000
      5      -5.4375      1.00000
      6      -5.4375      1.00000
      7      -4.7157      1.00000
      8      -4.7157      1.00000
      9      -4.2029      1.00000
     10      -4.2029      1.00000
     11       0.6137      1.00000
     12       0.6137      1.00000
     13       1.3462      1.00000
     14       1.3462      1.00000
     15       1.6288      1.00000
     16       1.6288      1.00000
     17       2.4090      1.00000
     18       2.4091      1.00000
     19       2.6017      1.00000
     20       2.6017      1.00000
     21       3.2911      1.00000
     22       3.2911      1.00000
     23       3.8226      1.00000
     24       3.8226      1.00000
     25       4.4948      1.00000
     26       4.4948      1.00000
     27       4.5930      1.00000
     28       4.5930      1.00000
     29       6.3365      0.00000
     30       6.3365      0.00000
     31       6.9685      0.00000
     32       6.9685      0.00000
     33       7.4322      0.00000
     34       7.4322      0.00000
     35       7.8575      0.00000
     36       7.8575      0.00000
     37       8.6455      0.00000
     38       8.6455      0.00000
     39       9.1958      0.00000
     40       9.1958      0.00000
     41      10.3995      0.00000
     42      10.3995      0.00000
     43      10.6831      0.00000
     44      10.6831      0.00000
     45      12.5605      0.00000
     46      12.5605      0.00000
     47      13.6320      0.00000
     48      13.6320      0.00000
     49      14.0723      0.00000
     50      14.0723      0.00000
     51      14.2814      0.00000
     52      14.2814      0.00000
     53      14.3588      0.00000
     54      14.3588      0.00000
     55      14.6856      0.00000
     56      14.6856      0.00000
     57      15.0923      0.00000
     58      15.0923      0.00000
     59      15.4257      0.00000
     60      15.4257      0.00000
     61      15.7937      0.00000
     62      15.7937      0.00000
     63      16.0158      0.00000
     64      16.0158      0.00000
     65      16.2110      0.00000
     66      16.2111      0.00000
     67      16.4200      0.00000
     68      16.4200      0.00000
     69      16.6196      0.00000
     70      16.6196      0.00000
     71      16.9393      0.00000
     72      16.9394      0.00000
     73      17.2249      0.00000
     74      17.2250      0.00000
     75      17.5025      0.00000
     76      17.5025      0.00000
     77      17.7727      0.00000
     78      17.7727      0.00000
     79      18.4656      0.00000
     80      18.4663      0.00000
     81      18.6015      0.00000
     82      18.6028      0.00000
     83      18.8982      0.00000
     84      18.9060      0.00000
     85      19.0662      0.00000
     86      19.0723      0.00000
     87      19.2987      0.00000
     88      19.3219      0.00000

 k-point     3 :       0.7816    0.3217    0.3217
  band No.  band energies     occupation 
      1      -6.0401      1.00000
      2      -6.0401      1.00000
      3      -5.8757      1.00000
      4      -5.8757      1.00000
      5      -5.4284      1.00000
      6      -5.4284      1.00000
      7      -4.6484      1.00000
      8      -4.6484      1.00000
      9      -4.2199      1.00000
     10      -4.2199      1.00000
     11       0.6413      1.00000
     12       0.6414      1.00000
     13       1.3256      1.00000
     14       1.3256      1.00000
     15       1.6610      1.00000
     16       1.6610      1.00000
     17       2.4265      1.00000
     18       2.4265      1.00000
     19       2.5728      1.00000
     20       2.5728      1.00000
     21       3.2680      1.00000
     22       3.2680      1.00000
     23       3.8533      1.00000
     24       3.8533      1.00000
     25       4.5425      1.00000
     26       4.5425      1.00000
     27       4.6262      1.00000
     28       4.6262      1.00000
     29       6.2954      0.00000
     30       6.2954      0.00000
     31       6.9412      0.00000
     32       6.9413      0.00000
     33       7.3969      0.00000
     34       7.3970      0.00000
     35       7.8746      0.00000
     36       7.8746      0.00000
     37       8.6700      0.00000
     38       8.6700      0.00000
     39       9.2182      0.00000
     40       9.2183      0.00000
[...]
  0.000   0.000   0.000   0.000   9.920   0.000   0.000   0.000  -0.000  -0.519   8.424   0.000   0.000   0.000  -0.000  -0.432
  0.006   0.000   0.007   0.000   0.000   0.000   9.920   0.000  -0.000   0.000   0.000   0.000   8.424   0.000  -0.000   0.000
  0.048   0.000   0.055   0.000  -0.000   0.519  -0.000   0.000   9.919   0.000  -0.000   0.432  -0.000   0.000   8.423   0.000
  0.000   0.000   0.000   0.000   8.424   0.000   0.000   0.000  -0.000  -0.432   7.226   0.000   0.000   0.000   0.000  -0.359
  0.005   0.000   0.006   0.000   0.000   0.000   8.424   0.000  -0.000   0.000   0.000   0.000   7.226   0.000  -0.000   0.000
  0.041   0.000   0.046   0.000  -0.000   0.432  -0.000   0.000   8.423   0.000   0.000   0.359  -0.000   0.000   7.225   0.000
 -0.000   0.000  -0.000   0.000   0.009   0.000  -0.000   0.000  -0.000   0.000   0.008   0.000  -0.000   0.000  -0.000   0.000
  0.000   0.000   0.000   0.000   0.000   0.000   0.000   0.000  -0.000   0.000  -0.000   0.000   0.000   0.000  -0.000   0.000
  0.000   0.000   0.000   0.000   0.000   0.000   0.002   0.000  -0.006   0.000   0.000   0.000   0.002   0.000  -0.005   0.000
 -0.000   0.000  -0.000   0.000  -0.000   0.000   0.009   0.000   0.001   0.000  -0.000   0.000   0.008   0.000   0.001   0.000
 -0.001   0.000  -0.001   0.000   0.000   0.000   0.001   0.000   0.010   0.000   0.000   0.000   0.001   0.000   0.009   0.000
 total augmentation occupancy for first ion, spin component:           1
  2.000   0.000   0.000   0.000   0.000   0.000   0.000   0.000   0.000   0.000   0.000   0.000   0.000
  0.000   0.000   0.000   0.000   0.000   0.000   0.000   0.000   0.000   0.000   0.000   0.000   0.000
  0.000   0.000   1.000   0.000   0.000   0.000   0.000   0.000   0.000   0.000   0.000   0.000   0.000
  0.000   0.000   0.000   1.000   0.000   0.000   0.000   0.000   0.000   0.000   0.000   0.000   0.000
  0.000   0.000   0.000   0.000   1.000   0.000   0.000   0.000   0.000   0.000   0.000   0.000   0.000
  0.000   0.000   0.000   0.000   0.000   0.000   0.000   0.000   0.000   0.000   0.000   0.000   0.000
  0.000   0.000   0.000   0.000   0.000   0.000   0.000   0.000   0.000   0.000   0.000   0.000   0.000
  0.000   0.000   0.000   0.000   0.000   0.000   0.000   0.000   0.000   0.000   0.000   0.000   0.000
  0.000   0.000   0.000   0.000   0.000   0.000   0.000   0.000   0.000   0.000   0.000   0.000   0.000
  0.000   0.000   0.000   0.000   0.000   0.000   0.000   0.000   0.000   0.000   0.000   0.000   0.000
  0.000   0.000   0.000   0.000   0.000   0.000   0.000   0.000   0.000   0.000   0.000   0.000   0.000
  0.000   0.000   0.000   0.000   0.000   0.000   0.000   0.000   0.000   0.000   0.000   0.000   0.000
  0.000   0.000   0.000   0.000   0.000   0.000   0.000   0.000   0.000   0.000   0.000   0.000   0.000
 total augmentation occupancy for first ion, spin component:           2
  0.400   0.000   0.000   0.000   0.000   0.000   0.000   0.000   0.000   0.000   0.000   0.000   0.000
  0.000   0.000   0.000   0.000   0.000   0.000   0.000   0.000   0.000   0.000   0.000   0.000   0.000
  0.000   0.000   0.200   0.000   0.000   0.000   0.000   0.000   0.000   0.000   0.000   0.000   0.000
  0.000   0.000   0.000   0.200   0.000   0.000   0.000   0.000   0.000   0.000   0.000   0.000   0.000
  0.000   0.000   0.000   0.000   0.200   0.000   0.000   0.000   0.000   0.000   0.000   0.000   0.000
  0.000   0.000   0.000   0.000   0.000   0.000   0.000   0.000   0.000   0.000   0.000   0.000   0.000
  0.000   0.000   0.000   0.000   0.000   0.000   0.000   0.000   0.000   0.000   0.000   0.000   0.000
  0.000   0.000   0.000   0.000   0.000   0.000   0.000   0.000   0.000   0.000   0.000   0.000   0.000
  0.000   0.000   0.000   0.000   0.000   0.000   0.000   0.000   0.000   0.000   0.000   0.000   0.000
  0.000   0.000   0.000   0.000   0.000   0.000   0.000   0.000   0.000   0.000   0.000   0.000   0.000
  0.000   0.000   0.000   0.000   0.000   0.000   0.000   0.000   0.000   0.000   0.000   0.000   0.000
  0.000   0.000   0.000   0.000   0.000   0.000   0.000   0.000   0.000   0.000   0.000   0.000   0.000
  0.000   0.000   0.000   0.000   0.000   0.000   0.000   0.000   0.000   0.000   0.000   0.000   0.000
 total augmentation occupancy for first ion, spin component:           3
  0.400   0.000   0.000   0.000   0.000   0.000   0.000   0.000   0.000   0.000   0.000   0.000   0.000
  0.000   0.000   0.000   0.000   0.000   0.000   0.000   0.000   0.000   0.000   0.000   0.000   0.000
  0.000   0.000   0.200   0.000   0.000   0.000   0.000   0.000   0.000   0.000   0.000   0.000   0.000
  0.000   0.000   0.000   0.200   0.000   0.000   0.000   0.000   0.000   0.000   0.000   0.000   0.000
  0.000   0.000   0.000   0.000   0.200   0.000   0.000   0.000   0.000   0.000   0.000   0.000   0.000
  0.000   0.000   0.000   0.000   0.000   0.000   0.000   0.000   0.000   0.000   0.000   0.000   0.000
  0.000   0.000   0.000   0.000   0.000   0.000   0.000   0.000   0.000   0.000   0.000   0.000   0.000
  0.000   0.000   0.000   0.000   0.000   0.000   0.000   0.000   0.000   0.000   0.000   0.000   0.000
  0.000   0.000   0.000   0.000   0.000   0.000   0.000   0.000   0.000   0.000   0.000   0.000   0.000
  0.000   0.000   0.000   0.000   0.000   0.000   0.000   0.000   0.000   0.000   0.000   0.000   0.000
  0.000   0.000   0.000   0.000   0.000   0.000   0.000   0.000   0.000   0.000   0.000   0.000   0.000
  0.000   0.000   0.000   0.000   0.000   0.000   0.000   0.000   0.000   0.000   0.000   0.000   0.000
  0.000   0.000   0.000   0.000   0.000   0.000   0.000   0.000   0.000   0.000   0.000   0.000   0.000
 total augmentation occupancy for first ion, spin component:           4
  0.400   0.000   0.000   0.000   0.000   0.000   0.000   0.000   0.000   0.000   0.000   0.000   0.000
  0.000   0.000   0.000   0.000   0.000   0.000   0.000   0.000   0.000   0.000   0.000   0.000   0.000
  0.000   0.000   0.200   0.000   0.000   0.000   0.000   0.000   0.000   0.000   0.000   0.000   0.000
  0.000   0.000   0.000   0.200   0.000   0.000   0.000   0.000   0.000   0.000   0.000   0.000   0.000
  0.000   0.000   0.000   0.000   0.200   0.000   0.000   0.000   0.000   0.000   0.000   0.000   0.000
  0.000   0.000   0.000   0.000   0.000   0.000   0.000   0.000   0.000   0.000   0.000   0.000   0.000
  0.000   0.000   0.000   0.000   0.000   0.000   0.000   0.000   0.000   0.000   0.000   0.000   0.000
  0.000   0.000   0.000   0.000   0.000   0.000   0.000   0.000   0.000   0.000   0.000   0.000   0.000
  0.000   0.000   0.000   0.000   0.000   0.000   0.000   0.000   0.000   0.000   0.000   0.000   0.000
  0.000   0.000   0.000   0.000   0.000   0.000   0.000   0.000   0.000   0.000   0.000   0.000   0.000
  0.000   0.000   0.000   0.000   0.000   0.000   0.000   0.000   0.000   0.000   0.000   0.000   0.000
  0.000   0.000   0.000   0.000   0.000   0.000   0.000   0.000   0.000   0.000   0.000   0.000   0.000
  0.000   0.000   0.000   0.000   0.000   0.000   0.000   0.000   0.000   0.000   0.000   0.000   0.000


------------------------ aborting loop because EDIFF is reached ----------------------------------------


    CHARGE:  cpu time   56.2999: real time   58.4160
    FORLOC:  cpu time    0.0634: real time    0.0635
    FORNL :  cpu time   66.7898: real time   68.9582
    STRESS:  cpu time  153.6513: real time  158.0170
    FORCOR:  cpu time    3.9294: real time    4.1414
    FORHAR:  cpu time    0.3720: real time    0.3721
    OFIELD:  cpu time    0.0292: real time    0.0292

 ---------------------------------------------------------------------------------------------

         DFTD3 V3.0 Rev 1        
 IVDW         = 11
 DF pbe       
 parameters
 VDW_S6       =    1.0000
 VDW_S8       =    0.7220
 VDW_SR       =    1.2170
 rs18     =    1.0000
 alpha6   =   14.0000
 alpha8   =   16.0000
 k1-k3    =   16.0000    1.3333   -4.0000
 VDW_RADIUS   =   50.2022 A
 VDW_CNRADIUS =   21.1671 A
 Edisp (eV)   -1.44006

 E6    (eV) :    -0.5341
 E8    (eV) :    -0.9060
 % E8        : 62.91
    FORVDW:  cpu time    0.0710: real time    0.0924

  FORCE on cell =-STRESS in cart. coord.  units (eV):
  Direction    XX          YY          ZZ          XY          YZ          ZX
  --------------------------------------------------------------------------------------
  Alpha Z     5.99832     5.99832     5.99832
  Ewald    -328.18772  -327.69505  -327.70289     0.00000     0.00000    -0.06217
  Hartree    20.92178    23.03616    23.51969     0.22242     0.28911    -0.73866
  E(xc)    -115.95464  -116.72450  -116.69881     0.05923     0.01930     0.05256
  Local    -162.73846  -176.11644  -176.81309     0.24184    -0.12330     2.45764
  n-local   490.81172   500.33730   499.88890    -0.65241    -0.43634    -0.89716
  augment  -134.75247  -138.00131  -137.75378     0.11751     0.12560     0.30405
  Kinetic   230.63772   260.62279   253.53878     0.86399    -3.15561    -3.21507
  Fock        0.00000     0.00000     0.00000     0.00000     0.00000     0.00000
  vdW        -1.55260    -1.18955    -1.19533     0.00000    -0.00000    -0.04581
  -------------------------------------------------------------------------------------
  Total       5.18364    30.26771    22.78177     0.85259    -3.28125    -2.14463
  in kB      48.10965   280.91655   211.43907     7.91291   -30.45349   -19.90445
  external pressure =      180.16 kB  Pullay stress =        0.00 kB


 VOLUME and BASIS-vectors are now :
 -----------------------------------------------------------------------------
  energy-cutoff  :      600.00
  volume of cell :      172.63
      direct lattice vectors                 reciprocal lattice vectors
    10.222282710 -2.216677340  0.000000000     0.048912754 -0.225562824 -0.125089241
    10.222282710  2.216677340  0.000000000     0.048912754  0.225562824 -0.125089241
     9.741601570  0.000000000  3.809189020    -0.000000000  0.000000000  0.262523071

  length of vectors
    10.459862439 10.459862439 10.459862434     0.262523071  0.262523071  0.262523071


 FORCES acting on ions
    electron-ion (+dipol)            ewald-force                    non-local-force                 convergence-correction
 -----------------------------------------------------------------------------------------------
   -.266E+01 -.128E+00 -.101E+00   0.388E+01 0.647E-14 0.490E+00   -.601E+00 0.729E-01 -.306E+00   -.501E+00 0.261E-01 -.845E-01
   0.266E+01 0.128E+00 0.101E+00   -.388E+01 -.689E-14 -.490E+00   0.601E+00 -.729E-01 0.306E+00   0.501E+00 -.261E-01 0.845E-01
   -.137E-05 -.111E-05 0.394E-05   -.568E-13 -.288E-14 -.355E-14   0.101E-05 0.106E-05 -.354E-05   0.304E-06 0.626E-07 -.305E-06
   0.277E+02 -.335E+00 0.400E+01   -.256E+02 0.394E-14 -.323E+01   -.921E+00 0.165E+00 -.597E+00   -.104E+01 0.626E-01 -.163E+00
   -.277E+02 0.335E+00 -.400E+01   0.256E+02 -.408E-14 0.323E+01   0.921E+00 -.165E+00 0.597E+00   0.104E+01 -.626E-01 0.163E+00
 -----------------------------------------------------------------------------------------------
   -.276E-05 -.376E-06 0.765E-05   -.142E-13 -.345E-14 -.444E-15   0.272E-05 0.782E-08 -.762E-05   0.270E-06 0.156E-07 -.292E-06


 POSITION                                       TOTAL-FORCE (eV/Angst)
 -----------------------------------------------------------------------------------
     12.06838      0.00000      1.52291         0.148144     -0.028793      0.001209
     18.11779      0.00000      2.28628        -0.148144      0.028793     -0.001209
      0.00000      0.00000      0.00000        -0.000000      0.000000      0.000000
      6.35376      0.00000      0.80178         0.171682     -0.107887      0.006898
     23.83241      0.00000      3.00741        -0.171683      0.107887     -0.006898
 -----------------------------------------------------------------------------------
    total drift:                                0.000000     -0.000000     -0.000000


--------------------------------------------------------------------------------------------------------



  FREE ENERGIE OF THE ION-ELECTRON SYSTEM (eV)
  ---------------------------------------------------
  free  energy   TOTEN  =       -11.90721461 eV

  energy  without entropy=      -11.90721461  energy(sigma->0) =      -11.90721461



--------------------------------------------------------------------------------------------------------


    POTLOK:  cpu time   10.5041: real time   10.5527


--------------------------------------------------------------------------------------------------------


     LOOP+:  cpu time11282.2727: real time11778.8555
    4ORBIT:  cpu time    0.0000: real time    0.0000

 Spin-Orbit-Coupling matrix elements

 Ion:    1  E_soc:     -1.2028603
 l=   1
     0.0000000    -0.1902712    -0.2014050
    -0.1902712     0.0000000    -0.2044915
    -0.2014050    -0.2044915     0.0000000
 l=   2
     0.0000000    -0.0003768     0.0000000    -0.0002810    -0.0011495
    -0.0003768     0.0000000    -0.0013428    -0.0004443    -0.0005824
     0.0000000    -0.0013428     0.0000000    -0.0008565     0.0000000
    -0.0002810    -0.0004443    -0.0008565     0.0000000    -0.0002292
    -0.0011495    -0.0005824     0.0000000    -0.0002292     0.0000000
 l=   3
     0.0000000     0.0000000     0.0000000     0.0000000     0.0000000     0.0000000     0.0000000
     0.0000000     0.0000000     0.0000000     0.0000000     0.0000000     0.0000000     0.0000000
     0.0000000     0.0000000     0.0000000     0.0000000     0.0000000     0.0000000     0.0000000
     0.0000000     0.0000000     0.0000000     0.0000000     0.0000000     0.0000000     0.0000000
     0.0000000     0.0000000     0.0000000     0.0000000     0.0000000     0.0000000     0.0000000
     0.0000000     0.0000000     0.0000000     0.0000000     0.0000000     0.0000000     0.0000000
     0.0000000     0.0000000     0.0000000     0.0000000     0.0000000     0.0000000     0.0000000

 Ion:    2  E_soc:     -1.2028604
 l=   1
     0.0000000    -0.1902712    -0.2014051
    -0.1902712     0.0000000    -0.2044914
    -0.2014051    -0.2044914     0.0000000
 l=   2
     0.0000000    -0.0003768     0.0000000    -0.0002810    -0.0011495
    -0.0003768     0.0000000    -0.0013428    -0.0004443    -0.0005824
     0.0000000    -0.0013428     0.0000000    -0.0008565     0.0000000
    -0.0002810    -0.0004443    -0.0008565     0.0000000    -0.0002292
    -0.0011495    -0.0005824     0.0000000    -0.0002292     0.0000000
 l=   3
     0.0000000     0.0000000     0.0000000     0.0000000     0.0000000     0.0000000     0.0000000
     0.0000000     0.0000000     0.0000000     0.0000000     0.0000000     0.0000000     0.0000000
     0.0000000     0.0000000     0.0000000     0.0000000     0.0000000     0.0000000     0.0000000
     0.0000000     0.0000000     0.0000000     0.0000000     0.0000000     0.0000000     0.0000000
     0.0000000     0.0000000     0.0000000     0.0000000     0.0000000     0.0000000     0.0000000
     0.0000000     0.0000000     0.0000000     0.0000000     0.0000000     0.0000000     0.0000000
     0.0000000     0.0000000     0.0000000     0.0000000     0.0000000     0.0000000     0.0000000

 Ion:    3  E_soc:     -0.1462452
 l=   1
     0.0000000    -0.0244339    -0.0225856
    -0.0244339     0.0000000    -0.0264234
    -0.0225856    -0.0264234     0.0000000
 l=   2
     0.0000000    -0.0000030     0.0000000    -0.0000723     0.0001069
    -0.0000030     0.0000000     0.0000640     0.0000205     0.0000529
     0.0000000     0.0000640     0.0000000     0.0000630     0.0000000
    -0.0000723     0.0000205     0.0000630     0.0000000     0.0000883
     0.0001069     0.0000529     0.0000000     0.0000883     0.0000000
 l=   3
     0.0000000     0.0000000     0.0000000     0.0000000     0.0000000     0.0000000     0.0000000
     0.0000000     0.0000000     0.0000000     0.0000000     0.0000000     0.0000000     0.0000000
     0.0000000     0.0000000     0.0000000     0.0000000     0.0000000     0.0000000     0.0000000
     0.0000000     0.0000000     0.0000000     0.0000000     0.0000000     0.0000000     0.0000000
     0.0000000     0.0000000     0.0000000     0.0000000     0.0000000     0.0000000     0.0000000
     0.0000000     0.0000000     0.0000000     0.0000000     0.0000000     0.0000000     0.0000000
     0.0000000     0.0000000     0.0000000     0.0000000     0.0000000     0.0000000     0.0000000

 Ion:    4  E_soc:     -0.1993998
 l=   1
     0.0000000    -0.0285606    -0.0333880
    -0.0285606     0.0000000    -0.0378726
    -0.0333880    -0.0378726     0.0000000
 l=   2
     0.0000000    -0.0000084     0.0000000    -0.0000055     0.0000196
    -0.0000084     0.0000000     0.0000440     0.0000072     0.0000293
     0.0000000     0.0000440     0.0000000    -0.0000019     0.0000000
    -0.0000055     0.0000072    -0.0000019     0.0000000     0.0000370
     0.0000196     0.0000293     0.0000000     0.0000370     0.0000000
 l=   3
     0.0000000     0.0000000     0.0000000     0.0000000     0.0000000     0.0000000     0.0000000
     0.0000000     0.0000000     0.0000000     0.0000000     0.0000000     0.0000000     0.0000000
     0.0000000     0.0000000     0.0000000     0.0000000     0.0000000     0.0000000     0.0000000
     0.0000000     0.0000000     0.0000000     0.0000000     0.0000000     0.0000000     0.0000000
     0.0000000     0.0000000     0.0000000     0.0000000     0.0000000     0.0000000     0.0000000
     0.0000000     0.0000000     0.0000000     0.0000000     0.0000000     0.0000000     0.0000000
     0.0000000     0.0000000     0.0000000     0.0000000     0.0000000     0.0000000     0.0000000

 Ion:    5  E_soc:     -0.1993998
 l=   1
     0.0000000    -0.0285606    -0.0333880
    -0.0285606     0.0000000    -0.0378726
    -0.0333880    -0.0378726     0.0000000
 l=   2
     0.0000000    -0.0000084     0.0000000    -0.0000055     0.0000196
    -0.0000084     0.0000000     0.0000440     0.0000072     0.0000293
     0.0000000     0.0000440     0.0000000    -0.0000019     0.0000000
    -0.0000055     0.0000072    -0.0000019     0.0000000     0.0000370
     0.0000196     0.0000293     0.0000000     0.0000370     0.0000000
 l=   3
     0.0000000     0.0000000     0.0000000     0.0000000     0.0000000     0.0000000     0.0000000
     0.0000000     0.0000000     0.0000000     0.0000000     0.0000000     0.0000000     0.0000000
     0.0000000     0.0000000     0.0000000     0.0000000     0.0000000     0.0000000     0.0000000
     0.0000000     0.0000000     0.0000000     0.0000000     0.0000000     0.0000000     0.0000000
     0.0000000     0.0000000     0.0000000     0.0000000     0.0000000     0.0000000     0.0000000
     0.0000000     0.0000000     0.0000000     0.0000000     0.0000000     0.0000000     0.0000000
     0.0000000     0.0000000     0.0000000     0.0000000     0.0000000     0.0000000     0.0000000

 total amount of memory used by VASP MPI-rank0  1763920. kBytes
=======================================================================

   base      :      30000. kBytes
   nonl-proj :     121642. kBytes
   fftplans  :     182238. kBytes
   grid      :     180182. kBytes
   one-center:         97. kBytes
   wavefun   :    1249761. kBytes

  
  
 General timing and accounting informations for this job:
 ========================================================
  
                  Total CPU time used (sec):    11338.522
                            User time (sec):    11141.585
                          System time (sec):      196.937
                         Elapsed time (sec):    11839.229
  
                   Maximum memory used (kb):     2134212.
                   Average memory used (kb):           0.
  
                          Minor page faults:     16980945
                          Major page faults:            0
                 Voluntary context switches:         5573
