<?xml version="1.0" encoding="ISO-8859-1"?>
<modeling>
 <generator>
  <i name="program" type="string">vasp </i>
  <i name="version" type="string">5.4.4.18Apr17-6-g9f103f2a35  </i>
  <i name="subversion" type="string">(build Mar 20 2018 18:01:20) complex            parallel </i>
  <i name="platform" type="string">LinuxGNU </i>
  <i name="date" type="string">2020 07 14 </i>
  <i name="time" type="string">12:40:41 </i>
 </generator>
 <incar>
  <i type="string" name="SYSTEM"> SnSe</i>
  <i type="int" name="ISTART">     1</i>
  <i type="string" name="PREC">accurate</i>
  <i type="string" name="ALGO"> A</i>
  <i type="logical" name="ADDGRID"> T  </i>
  <i type="int" name="ICHARG">    11</i>
  <i name="EDIFF">      0.00000010</i>
  <i name="ENCUT">    600.00000000</i>
  <i type="int" name="NBANDS">    48</i>
  <i type="logical" name="LREAL"> F  </i>
  <i type="logical" name="LPLANE"> T  </i>
  <i type="int" name="ISMEAR">     0</i>
  <i name="SIGMA">      0.01000000</i>
  <i type="int" name="LMAXMIX">     4</i>
  <i type="logical" name="LWAVE"> F  </i>
  <i type="logical" name="LCHARG"> F  </i>
  <v type="int" name="KPOINT_BSE">    -1     0     0     0</v>
 </incar>
 <structure name="primitive_cell" >
  <crystal>
   <varray name="basis" >
    <v>       2.13552400      -5.90816938      -0.00000000 </v>
    <v>       2.13552401       5.90816938       0.00000000 </v>
    <v>       0.00000000       0.00000000       4.24739298 </v>
   </varray>
   <i name="volume">    107.17903332 </i>
   <varray name="rec_basis" >
    <v>       0.23413457      -0.08462858       0.00000000 </v>
    <v>       0.23413457       0.08462858      -0.00000000 </v>
    <v>      -0.00000000      -0.00000000       0.23543854 </v>
   </varray>
  </crystal>
  <varray name="positions" >
   <v>       0.37512364      -0.37512364      -0.25000000 </v>
   <v>       0.14341737      -0.14341737      -0.25000000 </v>
   <v>      -0.14341737       0.14341737       0.25000000 </v>
   <v>      -0.37512364       0.37512364       0.25000000 </v>
  </varray>
 </structure>
 <varray name="primitive_index" >
  <v type="int" >        1 </v>
  <v type="int" >        3 </v>
  <v type="int" >        4 </v>
  <v type="int" >        2 </v>
 </varray>
 <kpoints>
  <varray name="kpointlist" >
   <v>      -0.50000000       0.50000000       0.33783784 </v>
   <v>      -0.51284557       0.48715443       0.33783784 </v>
   <v>      -0.50642279       0.49357721       0.33783784 </v>
   <v>      -0.49357721       0.50642279       0.33783784 </v>
   <v>      -0.48715443       0.51284557       0.33783784 </v>
   <v>      -0.46446127       0.46446127       0.33783784 </v>
   <v>      -0.48223063       0.48223063       0.33783784 </v>
   <v>      -0.51776937       0.51776937       0.33783784 </v>
   <v>      -0.53553873       0.53553873       0.33783784 </v>
   <v>      -0.50000000       0.50000000       0.31228899 </v>
   <v>      -0.50000000       0.50000000       0.32506341 </v>
   <v>      -0.50000000       0.50000000       0.35061227 </v>
   <v>      -0.50000000       0.50000000       0.36338669 </v>
   <v>      -0.47730684       0.45161570       0.33783784 </v>
   <v>      -0.47088405       0.45803848       0.33783784 </v>
   <v>      -0.45803848       0.47088405       0.33783784 </v>
   <v>      -0.45161570       0.47730684       0.33783784 </v>
   <v>      -0.49507621       0.46938506       0.33783784 </v>
   <v>      -0.48865342       0.47580785       0.33783784 </v>
   <v>      -0.47580785       0.48865342       0.33783784 </v>
   <v>      -0.46938506       0.49507621       0.33783784 </v>
   <v>      -0.53061494       0.50492379       0.33783784 </v>
   <v>      -0.52419215       0.51134658       0.33783784 </v>
   <v>      -0.51134658       0.52419215       0.33783784 </v>
   <v>      -0.50492379       0.53061494       0.33783784 </v>
   <v>      -0.54838430       0.52269316       0.33783784 </v>
   <v>      -0.54196152       0.52911595       0.33783784 </v>
   <v>      -0.52911595       0.54196152       0.33783784 </v>
   <v>      -0.52269316       0.54838430       0.33783784 </v>
   <v>      -0.51284557       0.48715443       0.31228899 </v>
   <v>      -0.50642279       0.49357721       0.31228899 </v>
   <v>      -0.49357721       0.50642279       0.31228899 </v>
   <v>      -0.48715443       0.51284557       0.31228899 </v>
   <v>      -0.51284557       0.48715443       0.32506341 </v>
   <v>      -0.50642279       0.49357721       0.32506341 </v>
   <v>      -0.49357721       0.50642279       0.32506341 </v>
   <v>      -0.48715443       0.51284557       0.32506341 </v>
   <v>      -0.51284557       0.48715443       0.35061227 </v>
   <v>      -0.50642279       0.49357721       0.35061227 </v>
   <v>      -0.49357721       0.50642279       0.35061227 </v>
   <v>      -0.48715443       0.51284557       0.35061227 </v>
   <v>      -0.51284557       0.48715443       0.36338669 </v>
   <v>      -0.50642279       0.49357721       0.36338669 </v>
   <v>      -0.49357721       0.50642279       0.36338669 </v>
   <v>      -0.48715443       0.51284557       0.36338669 </v>
   <v>      -0.46446127       0.46446127       0.31228899 </v>
   <v>      -0.48223063       0.48223063       0.31228899 </v>
   <v>      -0.51776937       0.51776937       0.31228899 </v>
   <v>      -0.53553873       0.53553873       0.31228899 </v>
   <v>      -0.46446127       0.46446127       0.32506341 </v>
   <v>      -0.48223063       0.48223063       0.32506341 </v>
   <v>      -0.51776937       0.51776937       0.32506341 </v>
   <v>      -0.53553873       0.53553873       0.32506341 </v>
   <v>      -0.46446127       0.46446127       0.35061227 </v>
   <v>      -0.48223063       0.48223063       0.35061227 </v>
   <v>      -0.51776937       0.51776937       0.35061227 </v>
   <v>      -0.53553873       0.53553873       0.35061227 </v>
   <v>      -0.46446127       0.46446127       0.36338669 </v>
   <v>      -0.48223063       0.48223063       0.36338669 </v>
   <v>      -0.51776937       0.51776937       0.36338669 </v>
   <v>      -0.53553873       0.53553873       0.36338669 </v>
  </varray>
  <varray name="weights" >
   <v>       0.01639344 </v>
   <v>       0.01639344 </v>
   <v>       0.01639344 </v>
   <v>       0.01639344 </v>
   <v>       0.01639344 </v>
   <v>       0.01639344 </v>
   <v>       0.01639344 </v>
   <v>       0.01639344 </v>
   <v>       0.01639344 </v>
   <v>       0.01639344 </v>
   <v>       0.01639344 </v>
   <v>       0.01639344 </v>
   <v>       0.01639344 </v>
   <v>       0.01639344 </v>
   <v>       0.01639344 </v>
   <v>       0.01639344 </v>
   <v>       0.01639344 </v>
   <v>       0.01639344 </v>
   <v>       0.01639344 </v>
   <v>       0.01639344 </v>
   <v>       0.01639344 </v>
   <v>       0.01639344 </v>
   <v>       0.01639344 </v>
   <v>       0.01639344 </v>
   <v>       0.01639344 </v>
   <v>       0.01639344 </v>
   <v>       0.01639344 </v>
   <v>       0.01639344 </v>
   <v>       0.01639344 </v>
   <v>       0.01639344 </v>
   <v>       0.01639344 </v>
   <v>       0.01639344 </v>
   <v>       0.01639344 </v>
   <v>       0.01639344 </v>
   <v>       0.01639344 </v>
   <v>       0.01639344 </v>
   <v>       0.01639344 </v>
   <v>       0.01639344 </v>
   <v>       0.01639344 </v>
   <v>       0.01639344 </v>
   <v>       0.01639344 </v>
   <v>       0.01639344 </v>
   <v>       0.01639344 </v>
   <v>       0.01639344 </v>
   <v>       0.01639344 </v>
   <v>       0.01639344 </v>
   <v>       0.01639344 </v>
   <v>       0.01639344 </v>
   <v>       0.01639344 </v>
   <v>       0.01639344 </v>
   <v>       0.01639344 </v>
   <v>       0.01639344 </v>
   <v>       0.01639344 </v>
   <v>       0.01639344 </v>
   <v>       0.01639344 </v>
   <v>       0.01639344 </v>
   <v>       0.01639344 </v>
   <v>       0.01639344 </v>
   <v>       0.01639344 </v>
   <v>       0.01639344 </v>
   <v>       0.01639344 </v>
  </varray>
 </kpoints>
 <parameters>
  <separator name="general" >
   <i type="string" name="SYSTEM">SnSe</i>
   <i type="logical" name="LCOMPAT"> F  </i>
  </separator>
  <separator name="electronic" >
   <i type="string" name="PREC">accura</i>
   <i name="ENMAX">    600.00000000</i>
   <i name="ENAUG">    446.84200000</i>
   <i name="EDIFF">      0.00000010</i>
   <i type="int" name="IALGO">    58</i>
   <i type="int" name="IWAVPR">    10</i>
   <i type="int" name="NBANDS">    48</i>
   <i name="NELECT">     40.00000000</i>
   <i type="int" name="TURBO">     0</i>
   <i type="int" name="IRESTART">     0</i>
   <i type="int" name="NREBOOT">     0</i>
   <i type="int" name="NMIN">     0</i>
   <i name="EREF">      0.00000000</i>
   <separator name="electronic smearing" >
    <i type="int" name="ISMEAR">     0</i>
    <i name="SIGMA">      0.01000000</i>
    <i name="KSPACING">      0.50000000</i>
    <i type="logical" name="KGAMMA"> T  </i>
   </separator>
   <separator name="electronic projectors" >
    <i type="logical" name="LREAL"> F  </i>
    <v name="ROPT">      0.00000000      0.00000000</v>
    <i type="int" name="LMAXPAW">  -100</i>
    <i type="int" name="LMAXMIX">     4</i>
    <i type="logical" name="NLSPLINE"> F  </i>
   </separator>
   <separator name="electronic startup" >
    <i type="int" name="ISTART">     1</i>
    <i type="int" name="ICHARG">    11</i>
    <i type="int" name="INIWAV">     1</i>
   </separator>
   <separator name="electronic spin" >
    <i type="int" name="ISPIN">     1</i>
    <i type="logical" name="LNONCOLLINEAR"> F  </i>
    <v name="MAGMOM">      1.00000000      1.00000000      1.00000000      1.00000000</v>
    <i name="NUPDOWN">     -1.00000000</i>
    <i type="logical" name="LSORBIT"> F  </i>
    <v name="SAXIS">      0.00000000      0.00000000      1.00000000</v>
    <i type="logical" name="LSPIRAL"> F  </i>
    <v name="QSPIRAL">      0.00000000      0.00000000      0.00000000</v>
    <i type="logical" name="LZEROZ"> F  </i>
   </separator>
   <separator name="electronic exchange-correlation" >
    <i type="logical" name="LASPH"> F  </i>
    <i type="logical" name="LMETAGGA"> F  </i>
   </separator>
   <separator name="electronic convergence" >
    <i type="int" name="NELM">    60</i>
    <i type="int" name="NELMDL">     0</i>
    <i type="int" name="NELMIN">     2</i>
    <i name="ENINI">    600.00000000</i>
    <separator name="electronic convergence detail" >
     <i type="logical" name="LDIAG"> T  </i>
     <i type="logical" name="LSUBROT"> F  </i>
     <i name="WEIMIN">      0.00000000</i>
     <i name="EBREAK">      0.00000000</i>
     <i name="DEPER">      0.30000000</i>
     <i type="int" name="NRMM">     4</i>
     <i name="TIME">      0.40000000</i>
    </separator>
   </separator>
   <separator name="electronic mixer" >
    <i name="AMIX">      0.40000000</i>
    <i name="BMIX">      1.00000000</i>
    <i name="AMIN">      0.10000000</i>
    <i name="AMIX_MAG">      1.60000000</i>
    <i name="BMIX_MAG">      1.00000000</i>
    <separator name="electronic mixer details" >
     <i type="int" name="IMIX">     4</i>
     <i type="logical" name="MIXFIRST"> F  </i>
     <i type="int" name="MAXMIX">   -45</i>
     <i name="WC">    100.00000000</i>
     <i type="int" name="INIMIX">     1</i>
     <i type="int" name="MIXPRE">     1</i>
     <i type="int" name="MREMOVE">     5</i>
    </separator>
   </separator>
   <separator name="electronic dipolcorrection" >
    <i type="logical" name="LDIPOL"> F  </i>
    <i type="logical" name="LMONO"> F  </i>
    <i type="int" name="IDIPOL">     0</i>
    <i name="EPSILON">      1.00000000</i>
    <v name="DIPOL">   -100.00000000   -100.00000000   -100.00000000</v>
    <i name="EFIELD">      0.00000000</i>
   </separator>
  </separator>
  <separator name="grids" >
   <i type="int" name="NGX">    50</i>
   <i type="int" name="NGY">    50</i>
   <i type="int" name="NGZ">    36</i>
   <i type="int" name="NGXF">   100</i>
   <i type="int" name="NGYF">   100</i>
   <i type="int" name="NGZF">    72</i>
   <i type="logical" name="ADDGRID"> T  </i>
  </separator>
  <separator name="ionic" >
   <i type="int" name="NSW">     0</i>
   <i type="int" name="IBRION">    -1</i>
   <i type="int" name="MDALGO">     0</i>
   <i type="int" name="ISIF">     2</i>
   <i name="PSTRESS">      0.00000000</i>
   <i name="EDIFFG">      0.00000100</i>
   <i type="int" name="NFREE">     0</i>
   <i name="POTIM">      0.50000000</i>
   <i name="SMASS">     -3.00000000</i>
   <i name="SCALEE">      1.00000000</i>
  </separator>
  <separator name="ionic md" >
   <i name="TEBEG">      0.00010000</i>
   <i name="TEEND">      0.00010000</i>
   <i type="int" name="NBLOCK">     1</i>
   <i type="int" name="KBLOCK">     1</i>
   <i type="int" name="NPACO">   256</i>
   <i name="APACO">     16.00000000</i>
  </separator>
  <separator name="symmetry" >
   <i type="int" name="ISYM">     2</i>
   <i name="SYMPREC">      0.00001000</i>
  </separator>
  <separator name="dos" >
   <i type="int" name="LORBIT">     0</i>
   <v name="RWIGS">     -1.00000000     -1.00000000</v>
   <i type="int" name="NEDOS">   301</i>
   <i name="EMIN">     10.00000000</i>
   <i name="EMAX">    -10.00000000</i>
   <i name="EFERMI">      0.00000000</i>
  </separator>
  <separator name="writing" >
   <i type="int" name="NWRITE">     2</i>
   <i type="logical" name="LWAVE"> F  </i>
   <i type="logical" name="LDOWNSAMPLE"> F  </i>
   <i type="logical" name="LCHARG"> F  </i>
   <i type="logical" name="LPARD"> F  </i>
   <i type="logical" name="LVTOT"> F  </i>
   <i type="logical" name="LVHAR"> F  </i>
   <i type="logical" name="LELF"> F  </i>
   <i type="logical" name="LOPTICS"> F  </i>
   <v name="STM">      0.00000000      0.00000000      0.00000000      0.00000000      0.00000000      0.00000000      0.00000000</v>
  </separator>
  <separator name="performance" >
   <i type="int" name="NPAR">     4</i>
   <i type="int" name="NSIM">     4</i>
   <i type="int" name="NBLK">    -1</i>
   <i type="logical" name="LPLANE"> T  </i>
   <i type="logical" name="LSCALAPACK"> T  </i>
   <i type="logical" name="LSCAAWARE"> F  </i>
   <i type="logical" name="LSCALU"> F  </i>
   <i type="logical" name="LASYNC"> F  </i>
   <i type="logical" name="LORBITALREAL"> F  </i>
  </separator>
  <separator name="miscellaneous" >
   <i type="int" name="IDIOT">     3</i>
   <i type="int" name="ISPECIAL">     0</i>
   <i type="logical" name="LMUSIC"> F  </i>
   <v name="POMASS">    118.71000000     78.96000000</v>
   <v name="DARWINR">      0.00000000      0.00000000</v>
   <v name="DARWINV">      1.00000000      1.00000000</v>
   <i type="logical" name="LCORR"> T  </i>
  </separator>
  <i type="logical" name="GGA_COMPAT"> T  </i>
  <i type="logical" name="LBERRY"> F  </i>
  <i type="int" name="ICORELEVEL">     0</i>
  <i type="logical" name="LDAU"> F  </i>
  <i type="int" name="I_CONSTRAINED_M">     0</i>
  <separator name="electronic exchange-correlation" >
   <i type="string" name="GGA">--</i>
   <i type="int" name="VOSKOWN">     0</i>
   <i type="logical" name="LHFCALC"> F  </i>
   <i type="string" name="PRECFOCK"></i>
   <i type="logical" name="LSYMGRAD"> F  </i>
   <i type="logical" name="LHFONE"> F  </i>
   <i type="logical" name="LRHFCALC"> F  </i>
   <i type="logical" name="LTHOMAS"> F  </i>
   <i type="logical" name="LMODELHF"> F  </i>
   <i name="ENCUT4O">     -1.00000000</i>
   <i type="int" name="EXXOEP">     0</i>
   <i type="int" name="FOURORBIT">     0</i>
   <i name="AEXX">      0.00000000</i>
   <i name="HFALPHA">      0.00000000</i>
   <i name="MCALPHA">      0.00000000</i>
   <i name="ALDAX">      1.00000000</i>
   <i name="AGGAX">      1.00000000</i>
   <i name="ALDAC">      1.00000000</i>
   <i name="AGGAC">      1.00000000</i>
   <i type="int" name="NKREDX">     1</i>
   <i type="int" name="NKREDY">     1</i>
   <i type="int" name="NKREDZ">     1</i>
   <i type="logical" name="SHIFTRED"> F  </i>
   <i type="logical" name="ODDONLY"> F  </i>
   <i type="logical" name="EVENONLY"> F  </i>
   <i type="int" name="LMAXFOCK">     0</i>
   <i type="int" name="NMAXFOCKAE">     0</i>
   <i type="logical" name="LFOCKAEDFT"> F  </i>
   <i name="HFSCREEN">      0.00000000</i>
   <i name="HFSCREENC">      0.00000000</i>
   <i type="int" name="NBANDSGWLOW">     0</i>
  </separator>
  <separator name="vdW DFT" >
   <i type="logical" name="LUSE_VDW"> F  </i>
   <i name="Zab_VDW">     -0.84910000</i>
   <i name="PARAM1">      0.12340000</i>
   <i name="PARAM2">      1.00000000</i>
   <i name="PARAM3">      0.00000000</i>
  </separator>
  <separator name="model GW" >
   <i type="int" name="MODEL_GW">     0</i>
   <i name="MODEL_EPS0">     16.07685500</i>
   <i name="MODEL_ALPHA">      1.00000000</i>
  </separator>
  <separator name="linear response parameters" >
   <i type="logical" name="LEPSILON"> F  </i>
   <i type="logical" name="LRPA"> F  </i>
   <i type="logical" name="LNABLA"> F  </i>
   <i type="logical" name="LVEL"> F  </i>
   <i type="int" name="KINTER">     0</i>
   <i name="CSHIFT">      0.10000000</i>
   <i name="OMEGAMAX">     -1.00000000</i>
   <i name="DEG_THRESHOLD">      0.00200000</i>
   <i name="RTIME">     -0.10000000</i>
   <i name="WPLASMAI">      0.00000000</i>
   <v name="DFIELD">      0.00000000      0.00000000      0.00000000</v>
   <v name="WPLASMA">      0.00000000      0.00000000      0.00000000      0.00000000      0.00000000      0.00000000      0.00000000      0.00000000      0.00000000</v>
  </separator>
  <separator name="orbital magnetization" >
   <i type="logical" name="NUCIND"> F  </i>
   <v name="MAGPOS">      0.00000000      0.00000000      0.00000000</v>
   <i type="logical" name="LNICSALL"> T  </i>
   <i type="logical" name="ORBITALMAG"> F  </i>
   <i type="logical" name="LMAGBLOCH"> F  </i>
   <i type="logical" name="LCHIMAG"> F  </i>
   <i type="logical" name="LGAUGE"> T  </i>
   <i type="int" name="MAGATOM">     0</i>
   <v name="MAGDIPOL">      0.00000000      0.00000000      0.00000000</v>
   <v name="AVECCONST">      0.00000000      0.00000000      0.00000000</v>
  </separator>
  <separator name="response functions" >
   <i type="logical" name="LADDER"> F  </i>
   <i type="logical" name="LRPAFORCE"> F  </i>
   <i type="logical" name="LFXC"> F  </i>
   <i type="logical" name="LHARTREE"> T  </i>
   <i type="int" name="IBSE">     0</i>
   <v type="int" name="KPOINT">    -1     0     0     0</v>
   <i type="logical" name="LTCTE"> F  </i>
   <i type="logical" name="LTETE"> F  </i>
   <i type="logical" name="LTRIPLET"> F  </i>
   <i type="logical" name="LFXCEPS"> F  </i>
   <i type="logical" name="LFXHEG"> F  </i>
   <i type="int" name="NATURALO">     2</i>
   <i type="logical" name="L2ORDER"> F  </i>
   <i type="logical" name="LMP2LT"> F  </i>
   <i type="logical" name="LUSEW"> F  </i>
   <i name="ENCUTGW">     -2.00000000</i>
   <i name="ENCUTGWSOFT">     -2.00000000</i>
   <i name="ENCUTLF">     -1.00000000</i>
   <i type="int" name="LMAXMP2">    -1</i>
   <i name="SCISSOR">      0.00000000</i>
   <i type="int" name="NOMEGA">     0</i>
   <i type="int" name="NOMEGAR">     0</i>
   <i type="int" name="NBANDSGW">    -1</i>
   <i type="int" name="NBANDSO">    -1</i>
   <i type="int" name="NBANDSV">    -1</i>
   <i type="int" name="NELM">     1</i>
   <i type="int" name="NELMHF">     1</i>
   <i type="int" name="DIM">     3</i>
   <i type="int" name="ANTIRES">     0</i>
   <i name="OMEGAMAX">    -30.00000000</i>
   <i name="OMEGAMIN">    -30.00000000</i>
   <i name="OMEGATL">   -200.00000000</i>
   <i type="int" name="OMEGAGRID">   140</i>
   <i name="CSHIFT">     -0.10000000</i>
   <i type="logical" name="SELFENERGY"> F  </i>
   <i type="logical" name="LSPECTRAL"> F  </i>
   <i type="logical" name="LSPECTRALGW"> F  </i>
   <i type="logical" name="LSINGLES"> F  </i>
   <i type="logical" name="LFERMIGW"> F  </i>
   <i type="logical" name="ODDONLYGW"> F  </i>
   <i type="logical" name="EVENONLYGW"> F  </i>
   <i type="int" name="NKREDLFX">     1</i>
   <i type="int" name="NKREDLFY">     1</i>
   <i type="int" name="NKREDLFZ">     1</i>
   <i type="int" name="MAXMEM">  2800</i>
   <i type="int" name="TELESCOPE">     0</i>
   <i type="int" name="TAUPAR">     1</i>
   <i type="int" name="OMEGAPAR">    -1</i>
   <i name="LAMBDA">      1.00000000</i>
  </separator>
  <separator name="External order field" >
   <i name="OFIELD_KAPPA">      0.00000000</i>
   <v name="OFIELD_K">      0.00000000      0.00000000      0.00000000</v>
   <i name="OFIELD_Q6_NEAR">      0.00000000</i>
   <i name="OFIELD_Q6_FAR">      0.00000000</i>
   <i name="OFIELD_A">      0.00000000</i>
  </separator>
 </parameters>
 <atominfo>
  <atoms>       4 </atoms>
  <types>       2 </types>
  <array name="atoms" >
   <dimension dim="1">ion</dimension>
   <field type="string">element</field>
   <field type="int">atomtype</field>
   <set>
    <rc><c>Sn</c><c>   1</c></rc>
    <rc><c>Sn</c><c>   1</c></rc>
    <rc><c>Se</c><c>   2</c></rc>
    <rc><c>Se</c><c>   2</c></rc>
   </set>
  </array>
  <array name="atomtypes" >
   <dimension dim="1">type</dimension>
   <field type="int">atomspertype</field>
   <field type="string">element</field>
   <field>mass</field>
   <field>valence</field>
   <field type="string">pseudopotential</field>
   <set>
    <rc><c>   2</c><c>Sn</c><c>    118.71000000</c><c>     14.00000000</c><c>  PAW_PBE Sn_d 06Sep2000                </c></rc>
    <rc><c>   2</c><c>Se</c><c>     78.96000000</c><c>      6.00000000</c><c>  PAW_PBE Se 06Sep2000                  </c></rc>
   </set>
  </array>
 </atominfo>
 <structure name="initialpos" >
  <crystal>
   <varray name="basis" >
    <v>       2.13552400      -5.90816938      -0.00000000 </v>
    <v>       2.13552401       5.90816938       0.00000000 </v>
    <v>       0.00000000       0.00000000       4.24739298 </v>
   </varray>
   <i name="volume">    107.17903332 </i>
   <varray name="rec_basis" >
    <v>       0.23413457      -0.08462858       0.00000000 </v>
    <v>       0.23413457       0.08462858      -0.00000000 </v>
    <v>      -0.00000000      -0.00000000       0.23543854 </v>
   </varray>
  </crystal>
  <varray name="positions" >
   <v>       0.37512364       0.62487636       0.75000000 </v>
   <v>       0.62487636       0.37512364       0.25000000 </v>
   <v>       0.14341737       0.85658263       0.75000000 </v>
   <v>       0.85658263       0.14341737       0.25000000 </v>
  </varray>
 </structure>
 <calculation>
  <scstep>
   <time name="total">    2.59    2.60</time>
   <energy>
    <i name="alphaZ">    103.08739963 </i>
    <i name="ewald">  -2987.53637685 </i>
    <i name="hartreedc">  -1185.27296518 </i>
    <i name="XCdc">    112.11510719 </i>
    <i name="pawpsdc">   4147.88099040 </i>
    <i name="pawaedc">  -4194.50438730 </i>
    <i name="eentropy">     -0.00000000 </i>
    <i name="bandstr">   -306.24974044 </i>
    <i name="atom">   4300.47238994 </i>
    <i name="e_fr_energy">    -10.00758261 </i>
    <i name="e_wo_entrp">    -10.00758261 </i>
    <i name="e_0_energy">    -10.00758261 </i>
   </energy>
  </scstep>
  <scstep>
   <time name="total">    3.09    3.09</time>
   <energy>
    <i name="alphaZ">    103.08739963 </i>
    <i name="ewald">  -2987.53637685 </i>
    <i name="hartreedc">  -1185.27296518 </i>
    <i name="XCdc">    112.11510719 </i>
    <i name="pawpsdc">   4147.88099040 </i>
    <i name="pawaedc">  -4194.50438730 </i>
    <i name="eentropy">     -0.00000000 </i>
    <i name="bandstr">   -306.24974046 </i>
    <i name="atom">   4300.47238994 </i>
    <i name="e_fr_energy">    -10.00758262 </i>
    <i name="e_wo_entrp">    -10.00758262 </i>
    <i name="e_0_energy">    -10.00758262 </i>
   </energy>
  </scstep>
  <structure>
   <crystal>
    <varray name="basis" >
     <v>       2.13552400      -5.90816938      -0.00000000 </v>
     <v>       2.13552401       5.90816938       0.00000000 </v>
     <v>       0.00000000       0.00000000       4.24739298 </v>
    </varray>
    <i name="volume">    107.17903332 </i>
    <varray name="rec_basis" >
     <v>       0.23413457      -0.08462858       0.00000000 </v>
     <v>       0.23413457       0.08462858      -0.00000000 </v>
     <v>      -0.00000000      -0.00000000       0.23543854 </v>
    </varray>
   </crystal>
   <varray name="positions" >
    <v>       0.37512364       0.62487636       0.75000000 </v>
    <v>       0.62487636       0.37512364       0.25000000 </v>
    <v>       0.14341737       0.85658263       0.75000000 </v>
    <v>       0.85658263       0.14341737       0.25000000 </v>
   </varray>
  </structure>
  <varray name="forces" >
   <v>       0.00000000       0.26985284       0.00000000 </v>
   <v>      -0.00000000      -0.26985284      -0.00000000 </v>
   <v>      -0.00000000      -1.90542268      -0.00000000 </v>
   <v>       0.00000000       1.90542268       0.00000000 </v>
  </varray>
  <varray name="stress" >
   <v>     437.68220433      -0.00000000       0.00000000 </v>
   <v>      -0.00000000     -76.66652444      -0.00000000 </v>
   <v>       0.00000000      -0.00000000      10.19901127 </v>
  </varray>
  <energy>
   <i name="e_fr_energy">    -10.88936523 </i>
   <i name="e_wo_entrp">    -10.88936523 </i>
   <i name="e_0_energy">     -0.00000000 </i>
  </energy>
  <time name="totalsc">   10.76   10.89</time>
  <eigenvalues>
   <array>
    <dimension dim="1">band</dimension>
    <dimension dim="2">kpoint</dimension>
    <dimension dim="3">spin</dimension>
    <field>eigene</field>
    <field>occ</field>
    <set>
     <set comment="spin 1">
      <set comment="kpoint 1">
       <r>  -15.5722    1.0000 </r>
       <r>  -15.5722    1.0000 </r>
       <r>  -15.5400    1.0000 </r>
       <r>  -15.5257    1.0000 </r>
       <r>  -15.4315    1.0000 </r>
       <r>  -15.4262    1.0000 </r>
       <r>  -15.3611    1.0000 </r>
       <r>  -15.3517    1.0000 </r>
       <r>  -15.3490    1.0000 </r>
       <r>  -15.3368    1.0000 </r>
       <r>   -8.2037    1.0000 </r>
       <r>   -7.8101    1.0000 </r>
       <r>   -2.2170    1.0000 </r>
       <r>   -1.5004    1.0000 </r>
       <r>    2.2931    1.0000 </r>
       <r>    2.9243    1.0000 </r>
       <r>    3.0788    1.0000 </r>
       <r>    3.2700    1.0000 </r>
       <r>    4.1643    1.0000 </r>
       <r>    5.4268    1.0000 </r>
       <r>    5.7062    0.0000 </r>
       <r>    6.6466    0.0000 </r>
       <r>    7.8147    0.0000 </r>
       <r>    8.6872    0.0000 </r>
       <r>    8.7043    0.0000 </r>
       <r>    9.1687    0.0000 </r>
       <r>   12.2773    0.0000 </r>
       <r>   12.4167    0.0000 </r>
       <r>   12.7316    0.0000 </r>
       <r>   13.5510    0.0000 </r>
       <r>   14.1257    0.0000 </r>
       <r>   14.5949    0.0000 </r>
       <r>   16.5535    0.0000 </r>
       <r>   18.2147    0.0000 </r>
       <r>   18.2180    0.0000 </r>
       <r>   19.1731    0.0000 </r>
       <r>   19.7881    0.0000 </r>
       <r>   20.0094    0.0000 </r>
       <r>   20.3531    0.0000 </r>
       <r>   21.5628    0.0000 </r>
       <r>   21.9117    0.0000 </r>
       <r>   22.5772    0.0000 </r>
       <r>   22.8162    0.0000 </r>
       <r>   22.8535    0.0000 </r>
       <r>   23.3929    0.0000 </r>
       <r>   23.5574    0.0000 </r>
       <r>   24.1542    0.0000 </r>
       <r>   24.2173    0.0000 </r>
      </set>
      <set comment="kpoint 2">
       <r>  -15.5722    1.0000 </r>
       <r>  -15.5722    1.0000 </r>
       <r>  -15.5400    1.0000 </r>
       <r>  -15.5257    1.0000 </r>
       <r>  -15.4316    1.0000 </r>
       <r>  -15.4263    1.0000 </r>
       <r>  -15.3611    1.0000 </r>
       <r>  -15.3516    1.0000 </r>
       <r>  -15.3491    1.0000 </r>
       <r>  -15.3367    1.0000 </r>
       <r>   -8.2015    1.0000 </r>
       <r>   -7.8090    1.0000 </r>
       <r>   -2.2141    1.0000 </r>
       <r>   -1.4969    1.0000 </r>
       <r>    2.2202    1.0000 </r>
       <r>    2.9867    1.0000 </r>
       <r>    3.0778    1.0000 </r>
       <r>    3.2385    1.0000 </r>
       <r>    4.1728    1.0000 </r>
       <r>    5.3873    1.0000 </r>
       <r>    5.7460    0.0000 </r>
       <r>    6.6414    0.0000 </r>
       <r>    7.8416    0.0000 </r>
       <r>    8.4377    0.0000 </r>
       <r>    8.9658    0.0000 </r>
       <r>    9.1886    0.0000 </r>
       <r>   12.1107    0.0000 </r>
       <r>   12.5184    0.0000 </r>
       <r>   12.8305    0.0000 </r>
       <r>   13.4863    0.0000 </r>
       <r>   14.0701    0.0000 </r>
       <r>   14.7381    0.0000 </r>
       <r>   16.5211    0.0000 </r>
       <r>   18.1969    0.0000 </r>
       <r>   18.2031    0.0000 </r>
       <r>   19.2002    0.0000 </r>
       <r>   19.7778    0.0000 </r>
       <r>   20.0227    0.0000 </r>
       <r>   20.3662    0.0000 </r>
       <r>   21.5489    0.0000 </r>
       <r>   21.8676    0.0000 </r>
       <r>   22.6341    0.0000 </r>
       <r>   22.6449    0.0000 </r>
       <r>   22.9964    0.0000 </r>
       <r>   23.4254    0.0000 </r>
       <r>   23.4907    0.0000 </r>
       <r>   24.1151    0.0000 </r>
       <r>   24.1910    0.0000 </r>
      </set>
      <set comment="kpoint 3">
       <r>  -15.5722    1.0000 </r>
       <r>  -15.5722    1.0000 </r>
       <r>  -15.5400    1.0000 </r>
       <r>  -15.5257    1.0000 </r>
       <r>  -15.4315    1.0000 </r>
       <r>  -15.4263    1.0000 </r>
       <r>  -15.3611    1.0000 </r>
       <r>  -15.3517    1.0000 </r>
       <r>  -15.3490    1.0000 </r>
       <r>  -15.3367    1.0000 </r>
       <r>   -8.2032    1.0000 </r>
       <r>   -7.8099    1.0000 </r>
       <r>   -2.2162    1.0000 </r>
       <r>   -1.4995    1.0000 </r>
       <r>    2.2734    1.0000 </r>
       <r>    2.9414    1.0000 </r>
       <r>    3.0786    1.0000 </r>
       <r>    3.2619    1.0000 </r>
       <r>    4.1664    1.0000 </r>
       <r>    5.4168    1.0000 </r>
       <r>    5.7163    0.0000 </r>
       <r>    6.6454    0.0000 </r>
       <r>    7.8216    0.0000 </r>
       <r>    8.5643    0.0000 </r>
       <r>    8.8301    0.0000 </r>
       <r>    9.1737    0.0000 </r>
       <r>   12.2165    0.0000 </r>
       <r>   12.4608    0.0000 </r>
       <r>   12.7568    0.0000 </r>
       <r>   13.5349    0.0000 </r>
       <r>   14.1067    0.0000 </r>
       <r>   14.6357    0.0000 </r>
       <r>   16.5453    0.0000 </r>
       <r>   18.2102    0.0000 </r>
       <r>   18.2143    0.0000 </r>
       <r>   19.1800    0.0000 </r>
       <r>   19.7855    0.0000 </r>
       <r>   20.0127    0.0000 </r>
       <r>   20.3564    0.0000 </r>
       <r>   21.5593    0.0000 </r>
       <r>   21.8998    0.0000 </r>
       <r>   22.5951    0.0000 </r>
       <r>   22.7391    0.0000 </r>
       <r>   22.9213    0.0000 </r>
       <r>   23.4041    0.0000 </r>
       <r>   23.5422    0.0000 </r>
       <r>   24.0837    0.0000 </r>
       <r>   24.2038    0.0000 </r>
      </set>
      <set comment="kpoint 4">
       <r>  -15.5722    1.0000 </r>
       <r>  -15.5722    1.0000 </r>
       <r>  -15.5400    1.0000 </r>
       <r>  -15.5257    1.0000 </r>
       <r>  -15.4315    1.0000 </r>
       <r>  -15.4263    1.0000 </r>
       <r>  -15.3611    1.0000 </r>
       <r>  -15.3517    1.0000 </r>
       <r>  -15.3490    1.0000 </r>
       <r>  -15.3367    1.0000 </r>
       <r>   -8.2032    1.0000 </r>
       <r>   -7.8099    1.0000 </r>
       <r>   -2.2162    1.0000 </r>
       <r>   -1.4995    1.0000 </r>
       <r>    2.2734    1.0000 </r>
       <r>    2.9414    1.0000 </r>
       <r>    3.0786    1.0000 </r>
       <r>    3.2619    1.0000 </r>
       <r>    4.1664    1.0000 </r>
       <r>    5.4168    1.0000 </r>
       <r>    5.7163    0.0000 </r>
       <r>    6.6454    0.0000 </r>
       <r>    7.8216    0.0000 </r>
       <r>    8.5643    0.0000 </r>
       <r>    8.8301    0.0000 </r>
       <r>    9.1737    0.0000 </r>
       <r>   12.2165    0.0000 </r>
       <r>   12.4608    0.0000 </r>
       <r>   12.7568    0.0000 </r>
       <r>   13.5349    0.0000 </r>
       <r>   14.1067    0.0000 </r>
       <r>   14.6357    0.0000 </r>
       <r>   16.5453    0.0000 </r>
       <r>   18.2102    0.0000 </r>
       <r>   18.2143    0.0000 </r>
       <r>   19.1800    0.0000 </r>
       <r>   19.7855    0.0000 </r>
       <r>   20.0127    0.0000 </r>
       <r>   20.3564    0.0000 </r>
       <r>   21.5593    0.0000 </r>
       <r>   21.8998    0.0000 </r>
       <r>   22.5951    0.0000 </r>
       <r>   22.7377    0.0000 </r>
       <r>   22.9213    0.0000 </r>
       <r>   23.4018    0.0000 </r>
       <r>   23.5406    0.0000 </r>
       <r>   24.0836    0.0000 </r>
       <r>   24.2030    0.0000 </r>
      </set>
      <set comment="kpoint 5">
       <r>  -15.5722    1.0000 </r>
       <r>  -15.5722    1.0000 </r>
       <r>  -15.5400    1.0000 </r>
       <r>  -15.5257    1.0000 </r>
       <r>  -15.4316    1.0000 </r>
       <r>  -15.4263    1.0000 </r>
       <r>  -15.3611    1.0000 </r>
       <r>  -15.3516    1.0000 </r>
       <r>  -15.3491    1.0000 </r>
       <r>  -15.3367    1.0000 </r>
       <r>   -8.2015    1.0000 </r>
       <r>   -7.8090    1.0000 </r>
       <r>   -2.2141    1.0000 </r>
       <r>   -1.4969    1.0000 </r>
       <r>    2.2202    1.0000 </r>
       <r>    2.9867    1.0000 </r>
       <r>    3.0778    1.0000 </r>
       <r>    3.2385    1.0000 </r>
       <r>    4.1728    1.0000 </r>
       <r>    5.3873    1.0000 </r>
       <r>    5.7460    0.0000 </r>
       <r>    6.6414    0.0000 </r>
       <r>    7.8416    0.0000 </r>
       <r>    8.4377    0.0000 </r>
       <r>    8.9658    0.0000 </r>
       <r>    9.1886    0.0000 </r>
       <r>   12.1107    0.0000 </r>
       <r>   12.5184    0.0000 </r>
       <r>   12.8305    0.0000 </r>
       <r>   13.4863    0.0000 </r>
       <r>   14.0701    0.0000 </r>
       <r>   14.7381    0.0000 </r>
       <r>   16.5211    0.0000 </r>
       <r>   18.1969    0.0000 </r>
       <r>   18.2031    0.0000 </r>
       <r>   19.2002    0.0000 </r>
       <r>   19.7778    0.0000 </r>
       <r>   20.0227    0.0000 </r>
       <r>   20.3662    0.0000 </r>
       <r>   21.5489    0.0000 </r>
       <r>   21.8676    0.0000 </r>
       <r>   22.6341    0.0000 </r>
       <r>   22.6449    0.0000 </r>
       <r>   22.9963    0.0000 </r>
       <r>   23.4250    0.0000 </r>
       <r>   23.4898    0.0000 </r>
       <r>   24.0421    0.0000 </r>
       <r>   24.2029    0.0000 </r>
      </set>
      <set comment="kpoint 6">
       <r>  -15.5729    1.0000 </r>
       <r>  -15.5714    1.0000 </r>
       <r>  -15.5401    1.0000 </r>
       <r>  -15.5256    1.0000 </r>
       <r>  -15.4315    1.0000 </r>
       <r>  -15.4263    1.0000 </r>
       <r>  -15.3611    1.0000 </r>
       <r>  -15.3517    1.0000 </r>
       <r>  -15.3490    1.0000 </r>
       <r>  -15.3368    1.0000 </r>
       <r>   -8.2064    1.0000 </r>
       <r>   -7.8077    1.0000 </r>
       <r>   -2.2111    1.0000 </r>
       <r>   -1.4957    1.0000 </r>
       <r>    2.2957    1.0000 </r>
       <r>    2.8560    1.0000 </r>
       <r>    3.1166    1.0000 </r>
       <r>    3.2683    1.0000 </r>
       <r>    4.1451    1.0000 </r>
       <r>    5.4125    1.0000 </r>
       <r>    5.7177    0.0000 </r>
       <r>    6.7078    0.0000 </r>
       <r>    7.8089    0.0000 </r>
       <r>    8.6657    0.0000 </r>
       <r>    8.6973    0.0000 </r>
       <r>    9.1777    0.0000 </r>
       <r>   12.2971    0.0000 </r>
       <r>   12.4393    0.0000 </r>
       <r>   12.7139    0.0000 </r>
       <r>   13.5675    0.0000 </r>
       <r>   14.1591    0.0000 </r>
       <r>   14.6143    0.0000 </r>
       <r>   16.5304    0.0000 </r>
       <r>   18.1529    0.0000 </r>
       <r>   18.2169    0.0000 </r>
       <r>   19.2036    0.0000 </r>
       <r>   19.7575    0.0000 </r>
       <r>   19.9994    0.0000 </r>
       <r>   20.3375    0.0000 </r>
       <r>   21.5299    0.0000 </r>
       <r>   21.8639    0.0000 </r>
       <r>   22.3310    0.0000 </r>
       <r>   22.7614    0.0000 </r>
       <r>   23.1039    0.0000 </r>
       <r>   23.3544    0.0000 </r>
       <r>   23.4944    0.0000 </r>
       <r>   24.0576    0.0000 </r>
       <r>   24.4264    0.0000 </r>
      </set>
      <set comment="kpoint 7">
       <r>  -15.5726    1.0000 </r>
       <r>  -15.5718    1.0000 </r>
       <r>  -15.5400    1.0000 </r>
       <r>  -15.5257    1.0000 </r>
       <r>  -15.4315    1.0000 </r>
       <r>  -15.4262    1.0000 </r>
       <r>  -15.3611    1.0000 </r>
       <r>  -15.3517    1.0000 </r>
       <r>  -15.3490    1.0000 </r>
       <r>  -15.3368    1.0000 </r>
       <r>   -8.2044    1.0000 </r>
       <r>   -7.8095    1.0000 </r>
       <r>   -2.2155    1.0000 </r>
       <r>   -1.4992    1.0000 </r>
       <r>    2.2937    1.0000 </r>
       <r>    2.9043    1.0000 </r>
       <r>    3.0912    1.0000 </r>
       <r>    3.2695    1.0000 </r>
       <r>    4.1594    1.0000 </r>
       <r>    5.4233    1.0000 </r>
       <r>    5.7089    0.0000 </r>
       <r>    6.6623    0.0000 </r>
       <r>    7.8133    0.0000 </r>
       <r>    8.6818    0.0000 </r>
       <r>    8.7025    0.0000 </r>
       <r>    9.1710    0.0000 </r>
       <r>   12.2823    0.0000 </r>
       <r>   12.4224    0.0000 </r>
       <r>   12.7270    0.0000 </r>
       <r>   13.5551    0.0000 </r>
       <r>   14.1342    0.0000 </r>
       <r>   14.5997    0.0000 </r>
       <r>   16.5477    0.0000 </r>
       <r>   18.1986    0.0000 </r>
       <r>   18.2177    0.0000 </r>
       <r>   19.1815    0.0000 </r>
       <r>   19.7804    0.0000 </r>
       <r>   20.0067    0.0000 </r>
       <r>   20.3496    0.0000 </r>
       <r>   21.5539    0.0000 </r>
       <r>   21.8989    0.0000 </r>
       <r>   22.4877    0.0000 </r>
       <r>   22.8019    0.0000 </r>
       <r>   22.9444    0.0000 </r>
       <r>   23.4195    0.0000 </r>
       <r>   23.4991    0.0000 </r>
       <r>   24.0558    0.0000 </r>
       <r>   24.2697    0.0000 </r>
      </set>
      <set comment="kpoint 8">
       <r>  -15.5726    1.0000 </r>
       <r>  -15.5718    1.0000 </r>
       <r>  -15.5400    1.0000 </r>
       <r>  -15.5257    1.0000 </r>
       <r>  -15.4315    1.0000 </r>
       <r>  -15.4262    1.0000 </r>
       <r>  -15.3611    1.0000 </r>
       <r>  -15.3517    1.0000 </r>
       <r>  -15.3490    1.0000 </r>
       <r>  -15.3368    1.0000 </r>
       <r>   -8.2044    1.0000 </r>
       <r>   -7.8095    1.0000 </r>
       <r>   -2.2155    1.0000 </r>
       <r>   -1.4992    1.0000 </r>
       <r>    2.2937    1.0000 </r>
       <r>    2.9043    1.0000 </r>
       <r>    3.0912    1.0000 </r>
       <r>    3.2695    1.0000 </r>
       <r>    4.1594    1.0000 </r>
       <r>    5.4233    1.0000 </r>
       <r>    5.7089    0.0000 </r>
       <r>    6.6623    0.0000 </r>
       <r>    7.8133    0.0000 </r>
       <r>    8.6818    0.0000 </r>
       <r>    8.7025    0.0000 </r>
       <r>    9.1710    0.0000 </r>
       <r>   12.2823    0.0000 </r>
       <r>   12.4224    0.0000 </r>
       <r>   12.7270    0.0000 </r>
       <r>   13.5551    0.0000 </r>
       <r>   14.1342    0.0000 </r>
       <r>   14.5997    0.0000 </r>
       <r>   16.5477    0.0000 </r>
       <r>   18.1986    0.0000 </r>
       <r>   18.2177    0.0000 </r>
       <r>   19.1815    0.0000 </r>
       <r>   19.7804    0.0000 </r>
       <r>   20.0067    0.0000 </r>
       <r>   20.3496    0.0000 </r>
       <r>   21.5539    0.0000 </r>
       <r>   21.8989    0.0000 </r>
       <r>   22.4878    0.0000 </r>
       <r>   22.8021    0.0000 </r>
       <r>   22.9450    0.0000 </r>
       <r>   23.4193    0.0000 </r>
       <r>   23.4978    0.0000 </r>
       <r>   24.0668    0.0000 </r>
       <r>   24.2712    0.0000 </r>
      </set>
      <set comment="kpoint 9">
       <r>  -15.5729    1.0000 </r>
       <r>  -15.5714    1.0000 </r>
       <r>  -15.5401    1.0000 </r>
       <r>  -15.5256    1.0000 </r>
       <r>  -15.4315    1.0000 </r>
       <r>  -15.4263    1.0000 </r>
       <r>  -15.3611    1.0000 </r>
       <r>  -15.3517    1.0000 </r>
       <r>  -15.3490    1.0000 </r>
       <r>  -15.3368    1.0000 </r>
       <r>   -8.2064    1.0000 </r>
       <r>   -7.8077    1.0000 </r>
       <r>   -2.2111    1.0000 </r>
       <r>   -1.4957    1.0000 </r>
       <r>    2.2957    1.0000 </r>
       <r>    2.8560    1.0000 </r>
       <r>    3.1166    1.0000 </r>
       <r>    3.2683    1.0000 </r>
       <r>    4.1451    1.0000 </r>
       <r>    5.4125    1.0000 </r>
       <r>    5.7177    0.0000 </r>
       <r>    6.7078    0.0000 </r>
       <r>    7.8089    0.0000 </r>
       <r>    8.6657    0.0000 </r>
       <r>    8.6973    0.0000 </r>
       <r>    9.1777    0.0000 </r>
       <r>   12.2971    0.0000 </r>
       <r>   12.4393    0.0000 </r>
       <r>   12.7139    0.0000 </r>
       <r>   13.5675    0.0000 </r>
       <r>   14.1591    0.0000 </r>
       <r>   14.6143    0.0000 </r>
       <r>   16.5304    0.0000 </r>
       <r>   18.1529    0.0000 </r>
       <r>   18.2169    0.0000 </r>
       <r>   19.2036    0.0000 </r>
       <r>   19.7575    0.0000 </r>
       <r>   19.9994    0.0000 </r>
       <r>   20.3375    0.0000 </r>
       <r>   21.5299    0.0000 </r>
       <r>   21.8639    0.0000 </r>
       <r>   22.3310    0.0000 </r>
       <r>   22.7618    0.0000 </r>
       <r>   23.1039    0.0000 </r>
       <r>   23.3533    0.0000 </r>
       <r>   23.4961    0.0000 </r>
       <r>   24.0257    0.0000 </r>
       <r>   24.3919    0.0000 </r>
      </set>
      <set comment="kpoint 10">
       <r>  -15.5729    1.0000 </r>
       <r>  -15.5726    1.0000 </r>
       <r>  -15.5413    1.0000 </r>
       <r>  -15.5247    1.0000 </r>
       <r>  -15.4313    1.0000 </r>
       <r>  -15.4252    1.0000 </r>
       <r>  -15.3620    1.0000 </r>
       <r>  -15.3531    1.0000 </r>
       <r>  -15.3482    1.0000 </r>
       <r>  -15.3361    1.0000 </r>
       <r>   -8.2491    1.0000 </r>
       <r>   -7.8059    1.0000 </r>
       <r>   -2.1783    1.0000 </r>
       <r>   -1.3530    1.0000 </r>
       <r>    2.1921    1.0000 </r>
       <r>    2.8224    1.0000 </r>
       <r>    3.0243    1.0000 </r>
       <r>    3.2743    1.0000 </r>
       <r>    4.1902    1.0000 </r>
       <r>    5.3120    1.0000 </r>
       <r>    5.8511    0.0000 </r>
       <r>    6.5409    0.0000 </r>
       <r>    7.9377    0.0000 </r>
       <r>    8.8871    0.0000 </r>
       <r>    8.9105    0.0000 </r>
       <r>    9.3710    0.0000 </r>
       <r>   12.1658    0.0000 </r>
       <r>   12.1847    0.0000 </r>
       <r>   12.6412    0.0000 </r>
       <r>   13.3997    0.0000 </r>
       <r>   14.1343    0.0000 </r>
       <r>   14.8435    0.0000 </r>
       <r>   16.3655    0.0000 </r>
       <r>   17.7345    0.0000 </r>
       <r>   18.0914    0.0000 </r>
       <r>   18.8801    0.0000 </r>
       <r>   19.4397    0.0000 </r>
       <r>   20.4106    0.0000 </r>
       <r>   20.6398    0.0000 </r>
       <r>   21.4619    0.0000 </r>
       <r>   21.6990    0.0000 </r>
       <r>   22.3961    0.0000 </r>
       <r>   22.6258    0.0000 </r>
       <r>   22.6792    0.0000 </r>
       <r>   23.4018    0.0000 </r>
       <r>   23.6974    0.0000 </r>
       <r>   23.8259    0.0000 </r>
       <r>   24.5223    0.0000 </r>
      </set>
      <set comment="kpoint 11">
       <r>  -15.5725    1.0000 </r>
       <r>  -15.5724    1.0000 </r>
       <r>  -15.5407    1.0000 </r>
       <r>  -15.5252    1.0000 </r>
       <r>  -15.4314    1.0000 </r>
       <r>  -15.4257    1.0000 </r>
       <r>  -15.3616    1.0000 </r>
       <r>  -15.3524    1.0000 </r>
       <r>  -15.3486    1.0000 </r>
       <r>  -15.3364    1.0000 </r>
       <r>   -8.2265    1.0000 </r>
       <r>   -7.8076    1.0000 </r>
       <r>   -2.1989    1.0000 </r>
       <r>   -1.4279    1.0000 </r>
       <r>    2.2421    1.0000 </r>
       <r>    2.8729    1.0000 </r>
       <r>    3.0513    1.0000 </r>
       <r>    3.2735    1.0000 </r>
       <r>    4.1772    1.0000 </r>
       <r>    5.3918    1.0000 </r>
       <r>    5.7553    0.0000 </r>
       <r>    6.5935    0.0000 </r>
       <r>    7.8728    0.0000 </r>
       <r>    8.7873    0.0000 </r>
       <r>    8.8063    0.0000 </r>
       <r>    9.2701    0.0000 </r>
       <r>   12.2201    0.0000 </r>
       <r>   12.3231    0.0000 </r>
       <r>   12.6577    0.0000 </r>
       <r>   13.5022    0.0000 </r>
       <r>   14.0989    0.0000 </r>
       <r>   14.7181    0.0000 </r>
       <r>   16.4660    0.0000 </r>
       <r>   17.9752    0.0000 </r>
       <r>   18.1627    0.0000 </r>
       <r>   19.0356    0.0000 </r>
       <r>   19.6148    0.0000 </r>
       <r>   20.1943    0.0000 </r>
       <r>   20.5084    0.0000 </r>
       <r>   21.5107    0.0000 </r>
       <r>   21.8070    0.0000 </r>
       <r>   22.4874    0.0000 </r>
       <r>   22.7384    0.0000 </r>
       <r>   22.7415    0.0000 </r>
       <r>   23.3883    0.0000 </r>
       <r>   23.6916    0.0000 </r>
       <r>   23.8893    0.0000 </r>
       <r>   24.3713    0.0000 </r>
      </set>
      <set comment="kpoint 12">
       <r>  -15.5719    1.0000 </r>
       <r>  -15.5719    1.0000 </r>
       <r>  -15.5393    1.0000 </r>
       <r>  -15.5262    1.0000 </r>
       <r>  -15.4316    1.0000 </r>
       <r>  -15.4267    1.0000 </r>
       <r>  -15.3607    1.0000 </r>
       <r>  -15.3510    1.0000 </r>
       <r>  -15.3494    1.0000 </r>
       <r>  -15.3372    1.0000 </r>
       <r>   -8.1809    1.0000 </r>
       <r>   -7.8137    1.0000 </r>
       <r>   -2.2322    1.0000 </r>
       <r>   -1.5705    1.0000 </r>
       <r>    2.3449    1.0000 </r>
       <r>    2.9763    1.0000 </r>
       <r>    3.1068    1.0000 </r>
       <r>    3.2635    1.0000 </r>
       <r>    4.1520    1.0000 </r>
       <r>    5.3839    1.0000 </r>
       <r>    5.7374    0.0000 </r>
       <r>    6.6997    0.0000 </r>
       <r>    7.7639    0.0000 </r>
       <r>    8.5879    0.0000 </r>
       <r>    8.6048    0.0000 </r>
       <r>    9.0674    0.0000 </r>
       <r>   12.3373    0.0000 </r>
       <r>   12.4570    0.0000 </r>
       <r>   12.8707    0.0000 </r>
       <r>   13.5385    0.0000 </r>
       <r>   14.2226    0.0000 </r>
       <r>   14.4740    0.0000 </r>
       <r>   16.6237    0.0000 </r>
       <r>   18.2436    0.0000 </r>
       <r>   18.4627    0.0000 </r>
       <r>   19.2635    0.0000 </r>
       <r>   19.8891    0.0000 </r>
       <r>   19.9592    0.0000 </r>
       <r>   20.1877    0.0000 </r>
       <r>   21.6174    0.0000 </r>
       <r>   22.0130    0.0000 </r>
       <r>   22.6663    0.0000 </r>
       <r>   22.8807    0.0000 </r>
       <r>   22.9680    0.0000 </r>
       <r>   23.4230    0.0000 </r>
       <r>   23.4308    0.0000 </r>
       <r>   24.0541    0.0000 </r>
       <r>   24.2615    0.0000 </r>
      </set>
      <set comment="kpoint 13">
       <r>  -15.5717    1.0000 </r>
       <r>  -15.5716    1.0000 </r>
       <r>  -15.5387    1.0000 </r>
       <r>  -15.5266    1.0000 </r>
       <r>  -15.4317    1.0000 </r>
       <r>  -15.4272    1.0000 </r>
       <r>  -15.3602    1.0000 </r>
       <r>  -15.3503    1.0000 </r>
       <r>  -15.3499    1.0000 </r>
       <r>  -15.3376    1.0000 </r>
       <r>   -8.1580    1.0000 </r>
       <r>   -7.8183    1.0000 </r>
       <r>   -2.2445    1.0000 </r>
       <r>   -1.6379    1.0000 </r>
       <r>    2.3973    1.0000 </r>
       <r>    3.0284    1.0000 </r>
       <r>    3.1349    1.0000 </r>
       <r>    3.2538    1.0000 </r>
       <r>    4.1408    1.0000 </r>
       <r>    5.2966    1.0000 </r>
       <r>    5.8151    0.0000 </r>
       <r>    6.7519    0.0000 </r>
       <r>    7.7206    0.0000 </r>
       <r>    8.4905    0.0000 </r>
       <r>    8.5083    0.0000 </r>
       <r>    8.9668    0.0000 </r>
       <r>   12.4001    0.0000 </r>
       <r>   12.4727    0.0000 </r>
       <r>   13.0458    0.0000 </r>
       <r>   13.4873    0.0000 </r>
       <r>   14.3554    0.0000 </r>
       <r>   14.3667    0.0000 </r>
       <r>   16.6716    0.0000 </r>
       <r>   18.2452    0.0000 </r>
       <r>   18.7090    0.0000 </r>
       <r>   19.2629    0.0000 </r>
       <r>   19.8820    0.0000 </r>
       <r>   20.0237    0.0000 </r>
       <r>   20.1279    0.0000 </r>
       <r>   21.6732    0.0000 </r>
       <r>   22.1106    0.0000 </r>
       <r>   22.7537    0.0000 </r>
       <r>   22.9201    0.0000 </r>
       <r>   23.0693    0.0000 </r>
       <r>   23.2870    0.0000 </r>
       <r>   23.4907    0.0000 </r>
       <r>   23.9116    0.0000 </r>
       <r>   24.4203    0.0000 </r>
      </set>
      <set comment="kpoint 14">
       <r>  -15.5729    1.0000 </r>
       <r>  -15.5713    1.0000 </r>
       <r>  -15.5401    1.0000 </r>
       <r>  -15.5256    1.0000 </r>
       <r>  -15.4316    1.0000 </r>
       <r>  -15.4264    1.0000 </r>
       <r>  -15.3611    1.0000 </r>
       <r>  -15.3516    1.0000 </r>
       <r>  -15.3491    1.0000 </r>
       <r>  -15.3367    1.0000 </r>
       <r>   -8.2041    1.0000 </r>
       <r>   -7.8066    1.0000 </r>
       <r>   -2.2082    1.0000 </r>
       <r>   -1.4922    1.0000 </r>
       <r>    2.2218    1.0000 </r>
       <r>    2.9029    1.0000 </r>
       <r>    3.1320    1.0000 </r>
       <r>    3.2360    1.0000 </r>
       <r>    4.1550    1.0000 </r>
       <r>    5.3735    1.0000 </r>
       <r>    5.7567    0.0000 </r>
       <r>    6.7018    0.0000 </r>
       <r>    7.8361    0.0000 </r>
       <r>    8.4267    0.0000 </r>
       <r>    8.9428    0.0000 </r>
       <r>    9.2028    0.0000 </r>
       <r>   12.1333    0.0000 </r>
       <r>   12.5313    0.0000 </r>
       <r>   12.8192    0.0000 </r>
       <r>   13.5044    0.0000 </r>
       <r>   14.1013    0.0000 </r>
       <r>   14.7588    0.0000 </r>
       <r>   16.4991    0.0000 </r>
       <r>   18.0995    0.0000 </r>
       <r>   18.2414    0.0000 </r>
       <r>   19.2249    0.0000 </r>
       <r>   19.7445    0.0000 </r>
       <r>   20.0130    0.0000 </r>
       <r>   20.3530    0.0000 </r>
       <r>   21.5168    0.0000 </r>
       <r>   21.8165    0.0000 </r>
       <r>   22.3587    0.0000 </r>
       <r>   22.7333    0.0000 </r>
       <r>   23.1155    0.0000 </r>
       <r>   23.3074    0.0000 </r>
       <r>   23.5498    0.0000 </r>
       <r>   24.0352    0.0000 </r>
       <r>   24.4562    0.0000 </r>
      </set>
      <set comment="kpoint 15">
       <r>  -15.5729    1.0000 </r>
       <r>  -15.5714    1.0000 </r>
       <r>  -15.5401    1.0000 </r>
       <r>  -15.5256    1.0000 </r>
       <r>  -15.4315    1.0000 </r>
       <r>  -15.4263    1.0000 </r>
       <r>  -15.3611    1.0000 </r>
       <r>  -15.3517    1.0000 </r>
       <r>  -15.3491    1.0000 </r>
       <r>  -15.3368    1.0000 </r>
       <r>   -8.2058    1.0000 </r>
       <r>   -7.8074    1.0000 </r>
       <r>   -2.2104    1.0000 </r>
       <r>   -1.4948    1.0000 </r>
       <r>    2.2757    1.0000 </r>
       <r>    2.8696    1.0000 </r>
       <r>    3.1202    1.0000 </r>
       <r>    3.2600    1.0000 </r>
       <r>    4.1475    1.0000 </r>
       <r>    5.4027    1.0000 </r>
       <r>    5.7276    0.0000 </r>
       <r>    6.7063    0.0000 </r>
       <r>    7.8158    0.0000 </r>
       <r>    8.5515    0.0000 </r>
       <r>    8.8133    0.0000 </r>
       <r>    9.1838    0.0000 </r>
       <r>   12.2378    0.0000 </r>
       <r>   12.4798    0.0000 </r>
       <r>   12.7411    0.0000 </r>
       <r>   13.5518    0.0000 </r>
       <r>   14.1393    0.0000 </r>
       <r>   14.6557    0.0000 </r>
       <r>   16.5225    0.0000 </r>
       <r>   18.1359    0.0000 </r>
       <r>   18.2268    0.0000 </r>
       <r>   19.2090    0.0000 </r>
       <r>   19.7542    0.0000 </r>
       <r>   20.0027    0.0000 </r>
       <r>   20.3415    0.0000 </r>
       <r>   21.5266    0.0000 </r>
       <r>   21.8509    0.0000 </r>
       <r>   22.3401    0.0000 </r>
       <r>   22.7530    0.0000 </r>
       <r>   23.1084    0.0000 </r>
       <r>   23.3417    0.0000 </r>
       <r>   23.5086    0.0000 </r>
       <r>   24.0410    0.0000 </r>
       <r>   24.4066    0.0000 </r>
      </set>
      <set comment="kpoint 16">
       <r>  -15.5729    1.0000 </r>
       <r>  -15.5714    1.0000 </r>
       <r>  -15.5401    1.0000 </r>
       <r>  -15.5256    1.0000 </r>
       <r>  -15.4315    1.0000 </r>
       <r>  -15.4263    1.0000 </r>
       <r>  -15.3611    1.0000 </r>
       <r>  -15.3517    1.0000 </r>
       <r>  -15.3491    1.0000 </r>
       <r>  -15.3368    1.0000 </r>
       <r>   -8.2058    1.0000 </r>
       <r>   -7.8074    1.0000 </r>
       <r>   -2.2104    1.0000 </r>
       <r>   -1.4948    1.0000 </r>
       <r>    2.2757    1.0000 </r>
       <r>    2.8696    1.0000 </r>
       <r>    3.1202    1.0000 </r>
       <r>    3.2600    1.0000 </r>
       <r>    4.1475    1.0000 </r>
       <r>    5.4027    1.0000 </r>
       <r>    5.7276    0.0000 </r>
       <r>    6.7063    0.0000 </r>
       <r>    7.8158    0.0000 </r>
       <r>    8.5515    0.0000 </r>
       <r>    8.8133    0.0000 </r>
       <r>    9.1838    0.0000 </r>
       <r>   12.2378    0.0000 </r>
       <r>   12.4798    0.0000 </r>
       <r>   12.7411    0.0000 </r>
       <r>   13.5518    0.0000 </r>
       <r>   14.1393    0.0000 </r>
       <r>   14.6557    0.0000 </r>
       <r>   16.5225    0.0000 </r>
       <r>   18.1359    0.0000 </r>
       <r>   18.2268    0.0000 </r>
       <r>   19.2090    0.0000 </r>
       <r>   19.7542    0.0000 </r>
       <r>   20.0027    0.0000 </r>
       <r>   20.3415    0.0000 </r>
       <r>   21.5266    0.0000 </r>
       <r>   21.8509    0.0000 </r>
       <r>   22.3401    0.0000 </r>
       <r>   22.7526    0.0000 </r>
       <r>   23.1062    0.0000 </r>
       <r>   23.3403    0.0000 </r>
       <r>   23.5091    0.0000 </r>
       <r>   24.0242    0.0000 </r>
       <r>   24.3803    0.0000 </r>
      </set>
      <set comment="kpoint 17">
       <r>  -15.5729    1.0000 </r>
       <r>  -15.5713    1.0000 </r>
       <r>  -15.5401    1.0000 </r>
       <r>  -15.5256    1.0000 </r>
       <r>  -15.4316    1.0000 </r>
       <r>  -15.4264    1.0000 </r>
       <r>  -15.3611    1.0000 </r>
       <r>  -15.3516    1.0000 </r>
       <r>  -15.3491    1.0000 </r>
       <r>  -15.3367    1.0000 </r>
       <r>   -8.2041    1.0000 </r>
       <r>   -7.8066    1.0000 </r>
       <r>   -2.2082    1.0000 </r>
       <r>   -1.4922    1.0000 </r>
       <r>    2.2218    1.0000 </r>
       <r>    2.9029    1.0000 </r>
       <r>    3.1320    1.0000 </r>
       <r>    3.2360    1.0000 </r>
       <r>    4.1550    1.0000 </r>
       <r>    5.3735    1.0000 </r>
       <r>    5.7567    0.0000 </r>
       <r>    6.7018    0.0000 </r>
       <r>    7.8361    0.0000 </r>
       <r>    8.4267    0.0000 </r>
       <r>    8.9428    0.0000 </r>
       <r>    9.2028    0.0000 </r>
       <r>   12.1333    0.0000 </r>
       <r>   12.5313    0.0000 </r>
       <r>   12.8192    0.0000 </r>
       <r>   13.5044    0.0000 </r>
       <r>   14.1013    0.0000 </r>
       <r>   14.7588    0.0000 </r>
       <r>   16.4991    0.0000 </r>
       <r>   18.0995    0.0000 </r>
       <r>   18.2414    0.0000 </r>
       <r>   19.2249    0.0000 </r>
       <r>   19.7445    0.0000 </r>
       <r>   20.0130    0.0000 </r>
       <r>   20.3530    0.0000 </r>
       <r>   21.5168    0.0000 </r>
       <r>   21.8164    0.0000 </r>
       <r>   22.3587    0.0000 </r>
       <r>   22.7332    0.0000 </r>
       <r>   23.1157    0.0000 </r>
       <r>   23.3046    0.0000 </r>
       <r>   23.5455    0.0000 </r>
       <r>   24.0325    0.0000 </r>
       <r>   24.4477    0.0000 </r>
      </set>
      <set comment="kpoint 18">
       <r>  -15.5725    1.0000 </r>
       <r>  -15.5718    1.0000 </r>
       <r>  -15.5400    1.0000 </r>
       <r>  -15.5256    1.0000 </r>
       <r>  -15.4316    1.0000 </r>
       <r>  -15.4263    1.0000 </r>
       <r>  -15.3611    1.0000 </r>
       <r>  -15.3516    1.0000 </r>
       <r>  -15.3491    1.0000 </r>
       <r>  -15.3367    1.0000 </r>
       <r>   -8.2021    1.0000 </r>
       <r>   -7.8084    1.0000 </r>
       <r>   -2.2126    1.0000 </r>
       <r>   -1.4957    1.0000 </r>
       <r>    2.2206    1.0000 </r>
       <r>    2.9589    1.0000 </r>
       <r>    3.0983    1.0000 </r>
       <r>    3.2379    1.0000 </r>
       <r>    4.1682    1.0000 </r>
       <r>    5.3838    1.0000 </r>
       <r>    5.7485    0.0000 </r>
       <r>    6.6568    0.0000 </r>
       <r>    7.8402    0.0000 </r>
       <r>    8.4349    0.0000 </r>
       <r>    8.9598    0.0000 </r>
       <r>    9.1924    0.0000 </r>
       <r>   12.1164    0.0000 </r>
       <r>   12.5217    0.0000 </r>
       <r>   12.8275    0.0000 </r>
       <r>   13.4909    0.0000 </r>
       <r>   14.0780    0.0000 </r>
       <r>   14.7433    0.0000 </r>
       <r>   16.5156    0.0000 </r>
       <r>   18.1579    0.0000 </r>
       <r>   18.2269    0.0000 </r>
       <r>   19.2070    0.0000 </r>
       <r>   19.7695    0.0000 </r>
       <r>   20.0201    0.0000 </r>
       <r>   20.3632    0.0000 </r>
       <r>   21.5402    0.0000 </r>
       <r>   21.8539    0.0000 </r>
       <r>   22.5086    0.0000 </r>
       <r>   22.7225    0.0000 </r>
       <r>   23.0266    0.0000 </r>
       <r>   23.4357    0.0000 </r>
       <r>   23.4582    0.0000 </r>
       <r>   24.0371    0.0000 </r>
       <r>   24.2416    0.0000 </r>
      </set>
      <set comment="kpoint 19">
       <r>  -15.5726    1.0000 </r>
       <r>  -15.5718    1.0000 </r>
       <r>  -15.5400    1.0000 </r>
       <r>  -15.5257    1.0000 </r>
       <r>  -15.4315    1.0000 </r>
       <r>  -15.4263    1.0000 </r>
       <r>  -15.3611    1.0000 </r>
       <r>  -15.3517    1.0000 </r>
       <r>  -15.3490    1.0000 </r>
       <r>  -15.3368    1.0000 </r>
       <r>   -8.2038    1.0000 </r>
       <r>   -7.8092    1.0000 </r>
       <r>   -2.2148    1.0000 </r>
       <r>   -1.4984    1.0000 </r>
       <r>    2.2740    1.0000 </r>
       <r>    2.9198    1.0000 </r>
       <r>    3.0927    1.0000 </r>
       <r>    3.2615    1.0000 </r>
       <r>    4.1616    1.0000 </r>
       <r>    5.4133    1.0000 </r>
       <r>    5.7189    0.0000 </r>
       <r>    6.6609    0.0000 </r>
       <r>    7.8201    0.0000 </r>
       <r>    8.5611    0.0000 </r>
       <r>    8.8258    0.0000 </r>
       <r>    9.1763    0.0000 </r>
       <r>   12.2218    0.0000 </r>
       <r>   12.4656    0.0000 </r>
       <r>   12.7527    0.0000 </r>
       <r>   13.5391    0.0000 </r>
       <r>   14.1150    0.0000 </r>
       <r>   14.6407    0.0000 </r>
       <r>   16.5396    0.0000 </r>
       <r>   18.1848    0.0000 </r>
       <r>   18.2237    0.0000 </r>
       <r>   19.1880    0.0000 </r>
       <r>   19.7776    0.0000 </r>
       <r>   20.0100    0.0000 </r>
       <r>   20.3531    0.0000 </r>
       <r>   21.5505    0.0000 </r>
       <r>   21.8866    0.0000 </r>
       <r>   22.4972    0.0000 </r>
       <r>   22.7698    0.0000 </r>
       <r>   22.9733    0.0000 </r>
       <r>   23.4305    0.0000 </r>
       <r>   23.4801    0.0000 </r>
       <r>   24.0362    0.0000 </r>
       <r>   24.2791    0.0000 </r>
      </set>
      <set comment="kpoint 20">
       <r>  -15.5726    1.0000 </r>
       <r>  -15.5718    1.0000 </r>
       <r>  -15.5400    1.0000 </r>
       <r>  -15.5257    1.0000 </r>
       <r>  -15.4315    1.0000 </r>
       <r>  -15.4263    1.0000 </r>
       <r>  -15.3611    1.0000 </r>
       <r>  -15.3517    1.0000 </r>
       <r>  -15.3490    1.0000 </r>
       <r>  -15.3368    1.0000 </r>
       <r>   -8.2038    1.0000 </r>
       <r>   -7.8092    1.0000 </r>
       <r>   -2.2148    1.0000 </r>
       <r>   -1.4984    1.0000 </r>
       <r>    2.2740    1.0000 </r>
       <r>    2.9198    1.0000 </r>
       <r>    3.0927    1.0000 </r>
       <r>    3.2615    1.0000 </r>
       <r>    4.1616    1.0000 </r>
       <r>    5.4133    1.0000 </r>
       <r>    5.7189    0.0000 </r>
       <r>    6.6609    0.0000 </r>
       <r>    7.8201    0.0000 </r>
       <r>    8.5611    0.0000 </r>
       <r>    8.8258    0.0000 </r>
       <r>    9.1763    0.0000 </r>
       <r>   12.2218    0.0000 </r>
       <r>   12.4656    0.0000 </r>
       <r>   12.7527    0.0000 </r>
       <r>   13.5391    0.0000 </r>
       <r>   14.1150    0.0000 </r>
       <r>   14.6407    0.0000 </r>
       <r>   16.5396    0.0000 </r>
       <r>   18.1848    0.0000 </r>
       <r>   18.2237    0.0000 </r>
       <r>   19.1880    0.0000 </r>
       <r>   19.7776    0.0000 </r>
       <r>   20.0100    0.0000 </r>
       <r>   20.3531    0.0000 </r>
       <r>   21.5505    0.0000 </r>
       <r>   21.8866    0.0000 </r>
       <r>   22.4972    0.0000 </r>
       <r>   22.7697    0.0000 </r>
       <r>   22.9736    0.0000 </r>
       <r>   23.4292    0.0000 </r>
       <r>   23.4800    0.0000 </r>
       <r>   24.0481    0.0000 </r>
       <r>   24.2938    0.0000 </r>
      </set>
      <set comment="kpoint 21">
       <r>  -15.5725    1.0000 </r>
       <r>  -15.5718    1.0000 </r>
       <r>  -15.5400    1.0000 </r>
       <r>  -15.5256    1.0000 </r>
       <r>  -15.4316    1.0000 </r>
       <r>  -15.4263    1.0000 </r>
       <r>  -15.3611    1.0000 </r>
       <r>  -15.3516    1.0000 </r>
       <r>  -15.3491    1.0000 </r>
       <r>  -15.3367    1.0000 </r>
       <r>   -8.2021    1.0000 </r>
       <r>   -7.8084    1.0000 </r>
       <r>   -2.2126    1.0000 </r>
       <r>   -1.4957    1.0000 </r>
       <r>    2.2206    1.0000 </r>
       <r>    2.9589    1.0000 </r>
       <r>    3.0983    1.0000 </r>
       <r>    3.2379    1.0000 </r>
       <r>    4.1682    1.0000 </r>
       <r>    5.3838    1.0000 </r>
       <r>    5.7485    0.0000 </r>
       <r>    6.6568    0.0000 </r>
       <r>    7.8402    0.0000 </r>
       <r>    8.4349    0.0000 </r>
       <r>    8.9598    0.0000 </r>
       <r>    9.1924    0.0000 </r>
       <r>   12.1164    0.0000 </r>
       <r>   12.5217    0.0000 </r>
       <r>   12.8275    0.0000 </r>
       <r>   13.4909    0.0000 </r>
       <r>   14.0780    0.0000 </r>
       <r>   14.7433    0.0000 </r>
       <r>   16.5156    0.0000 </r>
       <r>   18.1579    0.0000 </r>
       <r>   18.2269    0.0000 </r>
       <r>   19.2070    0.0000 </r>
       <r>   19.7695    0.0000 </r>
       <r>   20.0201    0.0000 </r>
       <r>   20.3632    0.0000 </r>
       <r>   21.5403    0.0000 </r>
       <r>   21.8538    0.0000 </r>
       <r>   22.5085    0.0000 </r>
       <r>   22.7225    0.0000 </r>
       <r>   23.0266    0.0000 </r>
       <r>   23.4336    0.0000 </r>
       <r>   23.4595    0.0000 </r>
       <r>   24.0705    0.0000 </r>
       <r>   24.2461    0.0000 </r>
      </set>
      <set comment="kpoint 22">
       <r>  -15.5725    1.0000 </r>
       <r>  -15.5718    1.0000 </r>
       <r>  -15.5400    1.0000 </r>
       <r>  -15.5256    1.0000 </r>
       <r>  -15.4316    1.0000 </r>
       <r>  -15.4263    1.0000 </r>
       <r>  -15.3611    1.0000 </r>
       <r>  -15.3516    1.0000 </r>
       <r>  -15.3491    1.0000 </r>
       <r>  -15.3367    1.0000 </r>
       <r>   -8.2021    1.0000 </r>
       <r>   -7.8084    1.0000 </r>
       <r>   -2.2126    1.0000 </r>
       <r>   -1.4957    1.0000 </r>
       <r>    2.2206    1.0000 </r>
       <r>    2.9589    1.0000 </r>
       <r>    3.0983    1.0000 </r>
       <r>    3.2379    1.0000 </r>
       <r>    4.1682    1.0000 </r>
       <r>    5.3838    1.0000 </r>
       <r>    5.7485    0.0000 </r>
       <r>    6.6568    0.0000 </r>
       <r>    7.8402    0.0000 </r>
       <r>    8.4349    0.0000 </r>
       <r>    8.9598    0.0000 </r>
       <r>    9.1924    0.0000 </r>
       <r>   12.1164    0.0000 </r>
       <r>   12.5217    0.0000 </r>
       <r>   12.8275    0.0000 </r>
       <r>   13.4909    0.0000 </r>
       <r>   14.0780    0.0000 </r>
       <r>   14.7433    0.0000 </r>
       <r>   16.5156    0.0000 </r>
       <r>   18.1579    0.0000 </r>
       <r>   18.2269    0.0000 </r>
       <r>   19.2070    0.0000 </r>
       <r>   19.7695    0.0000 </r>
       <r>   20.0201    0.0000 </r>
       <r>   20.3632    0.0000 </r>
       <r>   21.5403    0.0000 </r>
       <r>   21.8538    0.0000 </r>
       <r>   22.5085    0.0000 </r>
       <r>   22.7226    0.0000 </r>
       <r>   23.0283    0.0000 </r>
       <r>   23.4368    0.0000 </r>
       <r>   23.4616    0.0000 </r>
       <r>   24.0287    0.0000 </r>
       <r>   24.3222    0.0000 </r>
      </set>
      <set comment="kpoint 23">
       <r>  -15.5726    1.0000 </r>
       <r>  -15.5718    1.0000 </r>
       <r>  -15.5400    1.0000 </r>
       <r>  -15.5257    1.0000 </r>
       <r>  -15.4315    1.0000 </r>
       <r>  -15.4263    1.0000 </r>
       <r>  -15.3611    1.0000 </r>
       <r>  -15.3517    1.0000 </r>
       <r>  -15.3490    1.0000 </r>
       <r>  -15.3368    1.0000 </r>
       <r>   -8.2038    1.0000 </r>
       <r>   -7.8092    1.0000 </r>
       <r>   -2.2148    1.0000 </r>
       <r>   -1.4984    1.0000 </r>
       <r>    2.2740    1.0000 </r>
       <r>    2.9198    1.0000 </r>
       <r>    3.0927    1.0000 </r>
       <r>    3.2615    1.0000 </r>
       <r>    4.1616    1.0000 </r>
       <r>    5.4133    1.0000 </r>
       <r>    5.7189    0.0000 </r>
       <r>    6.6609    0.0000 </r>
       <r>    7.8201    0.0000 </r>
       <r>    8.5611    0.0000 </r>
       <r>    8.8258    0.0000 </r>
       <r>    9.1763    0.0000 </r>
       <r>   12.2218    0.0000 </r>
       <r>   12.4656    0.0000 </r>
       <r>   12.7527    0.0000 </r>
       <r>   13.5391    0.0000 </r>
       <r>   14.1150    0.0000 </r>
       <r>   14.6407    0.0000 </r>
       <r>   16.5396    0.0000 </r>
       <r>   18.1848    0.0000 </r>
       <r>   18.2237    0.0000 </r>
       <r>   19.1880    0.0000 </r>
       <r>   19.7776    0.0000 </r>
       <r>   20.0100    0.0000 </r>
       <r>   20.3531    0.0000 </r>
       <r>   21.5505    0.0000 </r>
       <r>   21.8867    0.0000 </r>
       <r>   22.4973    0.0000 </r>
       <r>   22.7697    0.0000 </r>
       <r>   22.9734    0.0000 </r>
       <r>   23.4298    0.0000 </r>
       <r>   23.4804    0.0000 </r>
       <r>   24.0373    0.0000 </r>
       <r>   24.2607    0.0000 </r>
      </set>
      <set comment="kpoint 24">
       <r>  -15.5726    1.0000 </r>
       <r>  -15.5718    1.0000 </r>
       <r>  -15.5400    1.0000 </r>
       <r>  -15.5257    1.0000 </r>
       <r>  -15.4315    1.0000 </r>
       <r>  -15.4263    1.0000 </r>
       <r>  -15.3611    1.0000 </r>
       <r>  -15.3517    1.0000 </r>
       <r>  -15.3490    1.0000 </r>
       <r>  -15.3368    1.0000 </r>
       <r>   -8.2038    1.0000 </r>
       <r>   -7.8092    1.0000 </r>
       <r>   -2.2148    1.0000 </r>
       <r>   -1.4984    1.0000 </r>
       <r>    2.2740    1.0000 </r>
       <r>    2.9198    1.0000 </r>
       <r>    3.0927    1.0000 </r>
       <r>    3.2615    1.0000 </r>
       <r>    4.1616    1.0000 </r>
       <r>    5.4133    1.0000 </r>
       <r>    5.7189    0.0000 </r>
       <r>    6.6609    0.0000 </r>
       <r>    7.8201    0.0000 </r>
       <r>    8.5611    0.0000 </r>
       <r>    8.8258    0.0000 </r>
       <r>    9.1763    0.0000 </r>
       <r>   12.2218    0.0000 </r>
       <r>   12.4656    0.0000 </r>
       <r>   12.7527    0.0000 </r>
       <r>   13.5391    0.0000 </r>
       <r>   14.1150    0.0000 </r>
       <r>   14.6407    0.0000 </r>
       <r>   16.5396    0.0000 </r>
       <r>   18.1848    0.0000 </r>
       <r>   18.2237    0.0000 </r>
       <r>   19.1880    0.0000 </r>
       <r>   19.7776    0.0000 </r>
       <r>   20.0100    0.0000 </r>
       <r>   20.3531    0.0000 </r>
       <r>   21.5505    0.0000 </r>
       <r>   21.8867    0.0000 </r>
       <r>   22.4972    0.0000 </r>
       <r>   22.7701    0.0000 </r>
       <r>   22.9735    0.0000 </r>
       <r>   23.4298    0.0000 </r>
       <r>   23.4819    0.0000 </r>
       <r>   24.0371    0.0000 </r>
       <r>   24.2699    0.0000 </r>
      </set>
      <set comment="kpoint 25">
       <r>  -15.5725    1.0000 </r>
       <r>  -15.5718    1.0000 </r>
       <r>  -15.5400    1.0000 </r>
       <r>  -15.5256    1.0000 </r>
       <r>  -15.4316    1.0000 </r>
       <r>  -15.4263    1.0000 </r>
       <r>  -15.3611    1.0000 </r>
       <r>  -15.3516    1.0000 </r>
       <r>  -15.3491    1.0000 </r>
       <r>  -15.3367    1.0000 </r>
       <r>   -8.2021    1.0000 </r>
       <r>   -7.8084    1.0000 </r>
       <r>   -2.2126    1.0000 </r>
       <r>   -1.4957    1.0000 </r>
       <r>    2.2206    1.0000 </r>
       <r>    2.9589    1.0000 </r>
       <r>    3.0983    1.0000 </r>
       <r>    3.2379    1.0000 </r>
       <r>    4.1682    1.0000 </r>
       <r>    5.3838    1.0000 </r>
       <r>    5.7485    0.0000 </r>
       <r>    6.6568    0.0000 </r>
       <r>    7.8402    0.0000 </r>
       <r>    8.4349    0.0000 </r>
       <r>    8.9598    0.0000 </r>
       <r>    9.1924    0.0000 </r>
       <r>   12.1164    0.0000 </r>
       <r>   12.5217    0.0000 </r>
       <r>   12.8275    0.0000 </r>
       <r>   13.4909    0.0000 </r>
       <r>   14.0780    0.0000 </r>
       <r>   14.7433    0.0000 </r>
       <r>   16.5156    0.0000 </r>
       <r>   18.1579    0.0000 </r>
       <r>   18.2269    0.0000 </r>
       <r>   19.2070    0.0000 </r>
       <r>   19.7695    0.0000 </r>
       <r>   20.0201    0.0000 </r>
       <r>   20.3632    0.0000 </r>
       <r>   21.5402    0.0000 </r>
       <r>   21.8538    0.0000 </r>
       <r>   22.5085    0.0000 </r>
       <r>   22.7228    0.0000 </r>
       <r>   23.0266    0.0000 </r>
       <r>   23.4336    0.0000 </r>
       <r>   23.4587    0.0000 </r>
       <r>   24.0002    0.0000 </r>
       <r>   24.2492    0.0000 </r>
      </set>
      <set comment="kpoint 26">
       <r>  -15.5729    1.0000 </r>
       <r>  -15.5713    1.0000 </r>
       <r>  -15.5401    1.0000 </r>
       <r>  -15.5256    1.0000 </r>
       <r>  -15.4316    1.0000 </r>
       <r>  -15.4264    1.0000 </r>
       <r>  -15.3611    1.0000 </r>
       <r>  -15.3516    1.0000 </r>
       <r>  -15.3491    1.0000 </r>
       <r>  -15.3367    1.0000 </r>
       <r>   -8.2041    1.0000 </r>
       <r>   -7.8066    1.0000 </r>
       <r>   -2.2082    1.0000 </r>
       <r>   -1.4922    1.0000 </r>
       <r>    2.2218    1.0000 </r>
       <r>    2.9029    1.0000 </r>
       <r>    3.1320    1.0000 </r>
       <r>    3.2360    1.0000 </r>
       <r>    4.1550    1.0000 </r>
       <r>    5.3735    1.0000 </r>
       <r>    5.7567    0.0000 </r>
       <r>    6.7018    0.0000 </r>
       <r>    7.8361    0.0000 </r>
       <r>    8.4267    0.0000 </r>
       <r>    8.9428    0.0000 </r>
       <r>    9.2028    0.0000 </r>
       <r>   12.1333    0.0000 </r>
       <r>   12.5313    0.0000 </r>
       <r>   12.8192    0.0000 </r>
       <r>   13.5044    0.0000 </r>
       <r>   14.1013    0.0000 </r>
       <r>   14.7588    0.0000 </r>
       <r>   16.4991    0.0000 </r>
       <r>   18.0995    0.0000 </r>
       <r>   18.2414    0.0000 </r>
       <r>   19.2249    0.0000 </r>
       <r>   19.7445    0.0000 </r>
       <r>   20.0130    0.0000 </r>
       <r>   20.3530    0.0000 </r>
       <r>   21.5168    0.0000 </r>
       <r>   21.8165    0.0000 </r>
       <r>   22.3587    0.0000 </r>
       <r>   22.7329    0.0000 </r>
       <r>   23.1161    0.0000 </r>
       <r>   23.3049    0.0000 </r>
       <r>   23.5438    0.0000 </r>
       <r>   24.0359    0.0000 </r>
       <r>   24.3741    0.0000 </r>
      </set>
      <set comment="kpoint 27">
       <r>  -15.5729    1.0000 </r>
       <r>  -15.5714    1.0000 </r>
       <r>  -15.5401    1.0000 </r>
       <r>  -15.5256    1.0000 </r>
       <r>  -15.4315    1.0000 </r>
       <r>  -15.4263    1.0000 </r>
       <r>  -15.3611    1.0000 </r>
       <r>  -15.3517    1.0000 </r>
       <r>  -15.3491    1.0000 </r>
       <r>  -15.3368    1.0000 </r>
       <r>   -8.2058    1.0000 </r>
       <r>   -7.8074    1.0000 </r>
       <r>   -2.2104    1.0000 </r>
       <r>   -1.4948    1.0000 </r>
       <r>    2.2757    1.0000 </r>
       <r>    2.8696    1.0000 </r>
       <r>    3.1202    1.0000 </r>
       <r>    3.2600    1.0000 </r>
       <r>    4.1475    1.0000 </r>
       <r>    5.4027    1.0000 </r>
       <r>    5.7276    0.0000 </r>
       <r>    6.7063    0.0000 </r>
       <r>    7.8158    0.0000 </r>
       <r>    8.5515    0.0000 </r>
       <r>    8.8133    0.0000 </r>
       <r>    9.1838    0.0000 </r>
       <r>   12.2378    0.0000 </r>
       <r>   12.4798    0.0000 </r>
       <r>   12.7411    0.0000 </r>
       <r>   13.5518    0.0000 </r>
       <r>   14.1393    0.0000 </r>
       <r>   14.6557    0.0000 </r>
       <r>   16.5225    0.0000 </r>
       <r>   18.1359    0.0000 </r>
       <r>   18.2268    0.0000 </r>
       <r>   19.2090    0.0000 </r>
       <r>   19.7542    0.0000 </r>
       <r>   20.0027    0.0000 </r>
       <r>   20.3415    0.0000 </r>
       <r>   21.5266    0.0000 </r>
       <r>   21.8510    0.0000 </r>
       <r>   22.3401    0.0000 </r>
       <r>   22.7529    0.0000 </r>
       <r>   23.1071    0.0000 </r>
       <r>   23.3403    0.0000 </r>
       <r>   23.5083    0.0000 </r>
       <r>   24.0589    0.0000 </r>
       <r>   24.3873    0.0000 </r>
      </set>
      <set comment="kpoint 28">
       <r>  -15.5729    1.0000 </r>
       <r>  -15.5714    1.0000 </r>
       <r>  -15.5401    1.0000 </r>
       <r>  -15.5256    1.0000 </r>
       <r>  -15.4315    1.0000 </r>
       <r>  -15.4263    1.0000 </r>
       <r>  -15.3611    1.0000 </r>
       <r>  -15.3517    1.0000 </r>
       <r>  -15.3491    1.0000 </r>
       <r>  -15.3368    1.0000 </r>
       <r>   -8.2058    1.0000 </r>
       <r>   -7.8074    1.0000 </r>
       <r>   -2.2104    1.0000 </r>
       <r>   -1.4948    1.0000 </r>
       <r>    2.2757    1.0000 </r>
       <r>    2.8696    1.0000 </r>
       <r>    3.1202    1.0000 </r>
       <r>    3.2600    1.0000 </r>
       <r>    4.1475    1.0000 </r>
       <r>    5.4027    1.0000 </r>
       <r>    5.7276    0.0000 </r>
       <r>    6.7063    0.0000 </r>
       <r>    7.8158    0.0000 </r>
       <r>    8.5515    0.0000 </r>
       <r>    8.8133    0.0000 </r>
       <r>    9.1838    0.0000 </r>
       <r>   12.2378    0.0000 </r>
       <r>   12.4798    0.0000 </r>
       <r>   12.7411    0.0000 </r>
       <r>   13.5518    0.0000 </r>
       <r>   14.1393    0.0000 </r>
       <r>   14.6557    0.0000 </r>
       <r>   16.5225    0.0000 </r>
       <r>   18.1359    0.0000 </r>
       <r>   18.2268    0.0000 </r>
       <r>   19.2090    0.0000 </r>
       <r>   19.7542    0.0000 </r>
       <r>   20.0027    0.0000 </r>
       <r>   20.3415    0.0000 </r>
       <r>   21.5266    0.0000 </r>
       <r>   21.8509    0.0000 </r>
       <r>   22.3401    0.0000 </r>
       <r>   22.7526    0.0000 </r>
       <r>   23.1067    0.0000 </r>
       <r>   23.3454    0.0000 </r>
       <r>   23.5092    0.0000 </r>
       <r>   24.0234    0.0000 </r>
       <r>   24.3999    0.0000 </r>
      </set>
      <set comment="kpoint 29">
       <r>  -15.5729    1.0000 </r>
       <r>  -15.5713    1.0000 </r>
       <r>  -15.5401    1.0000 </r>
       <r>  -15.5256    1.0000 </r>
       <r>  -15.4316    1.0000 </r>
       <r>  -15.4264    1.0000 </r>
       <r>  -15.3611    1.0000 </r>
       <r>  -15.3516    1.0000 </r>
       <r>  -15.3491    1.0000 </r>
       <r>  -15.3367    1.0000 </r>
       <r>   -8.2041    1.0000 </r>
       <r>   -7.8066    1.0000 </r>
       <r>   -2.2082    1.0000 </r>
       <r>   -1.4922    1.0000 </r>
       <r>    2.2218    1.0000 </r>
       <r>    2.9029    1.0000 </r>
       <r>    3.1320    1.0000 </r>
       <r>    3.2360    1.0000 </r>
       <r>    4.1550    1.0000 </r>
       <r>    5.3735    1.0000 </r>
       <r>    5.7567    0.0000 </r>
       <r>    6.7018    0.0000 </r>
       <r>    7.8361    0.0000 </r>
       <r>    8.4267    0.0000 </r>
       <r>    8.9428    0.0000 </r>
       <r>    9.2028    0.0000 </r>
       <r>   12.1333    0.0000 </r>
       <r>   12.5313    0.0000 </r>
       <r>   12.8192    0.0000 </r>
       <r>   13.5044    0.0000 </r>
       <r>   14.1013    0.0000 </r>
       <r>   14.7588    0.0000 </r>
       <r>   16.4991    0.0000 </r>
       <r>   18.0995    0.0000 </r>
       <r>   18.2414    0.0000 </r>
       <r>   19.2249    0.0000 </r>
       <r>   19.7445    0.0000 </r>
       <r>   20.0130    0.0000 </r>
       <r>   20.3530    0.0000 </r>
       <r>   21.5168    0.0000 </r>
       <r>   21.8165    0.0000 </r>
       <r>   22.3587    0.0000 </r>
       <r>   22.7329    0.0000 </r>
       <r>   23.1151    0.0000 </r>
       <r>   23.3046    0.0000 </r>
       <r>   23.5514    0.0000 </r>
       <r>   24.0172    0.0000 </r>
       <r>   24.3793    0.0000 </r>
      </set>
      <set comment="kpoint 30">
       <r>  -15.5728    1.0000 </r>
       <r>  -15.5726    1.0000 </r>
       <r>  -15.5413    1.0000 </r>
       <r>  -15.5247    1.0000 </r>
       <r>  -15.4314    1.0000 </r>
       <r>  -15.4253    1.0000 </r>
       <r>  -15.3620    1.0000 </r>
       <r>  -15.3530    1.0000 </r>
       <r>  -15.3482    1.0000 </r>
       <r>  -15.3360    1.0000 </r>
       <r>   -8.2468    1.0000 </r>
       <r>   -7.8048    1.0000 </r>
       <r>   -2.1761    1.0000 </r>
       <r>   -1.3500    1.0000 </r>
       <r>    2.1221    1.0000 </r>
       <r>    2.8854    1.0000 </r>
       <r>    3.0232    1.0000 </r>
       <r>    3.2446    1.0000 </r>
       <r>    4.1962    1.0000 </r>
       <r>    5.2950    1.0000 </r>
       <r>    5.8711    0.0000 </r>
       <r>    6.5391    0.0000 </r>
       <r>    7.9585    0.0000 </r>
       <r>    8.6387    0.0000 </r>
       <r>    9.1625    0.0000 </r>
       <r>    9.3915    0.0000 </r>
       <r>   12.0466    0.0000 </r>
       <r>   12.2165    0.0000 </r>
       <r>   12.7663    0.0000 </r>
       <r>   13.3910    0.0000 </r>
       <r>   14.0322    0.0000 </r>
       <r>   14.9768    0.0000 </r>
       <r>   16.3252    0.0000 </r>
       <r>   17.7370    0.0000 </r>
       <r>   18.0727    0.0000 </r>
       <r>   18.9104    0.0000 </r>
       <r>   19.4314    0.0000 </r>
       <r>   20.4165    0.0000 </r>
       <r>   20.6595    0.0000 </r>
       <r>   21.4473    0.0000 </r>
       <r>   21.6475    0.0000 </r>
       <r>   22.4627    0.0000 </r>
       <r>   22.4708    0.0000 </r>
       <r>   22.8015    0.0000 </r>
       <r>   23.4425    0.0000 </r>
       <r>   23.6349    0.0000 </r>
       <r>   23.7525    0.0000 </r>
       <r>   24.4868    0.0000 </r>
      </set>
      <set comment="kpoint 31">
       <r>  -15.5729    1.0000 </r>
       <r>  -15.5726    1.0000 </r>
       <r>  -15.5413    1.0000 </r>
       <r>  -15.5247    1.0000 </r>
       <r>  -15.4313    1.0000 </r>
       <r>  -15.4253    1.0000 </r>
       <r>  -15.3620    1.0000 </r>
       <r>  -15.3531    1.0000 </r>
       <r>  -15.3482    1.0000 </r>
       <r>  -15.3360    1.0000 </r>
       <r>   -8.2485    1.0000 </r>
       <r>   -7.8056    1.0000 </r>
       <r>   -2.1777    1.0000 </r>
       <r>   -1.3522    1.0000 </r>
       <r>    2.1732    1.0000 </r>
       <r>    2.8396    1.0000 </r>
       <r>    3.0241    1.0000 </r>
       <r>    3.2667    1.0000 </r>
       <r>    4.1917    1.0000 </r>
       <r>    5.3081    1.0000 </r>
       <r>    5.8558    0.0000 </r>
       <r>    6.5404    0.0000 </r>
       <r>    7.9430    0.0000 </r>
       <r>    8.7674    0.0000 </r>
       <r>    9.0311    0.0000 </r>
       <r>    9.3761    0.0000 </r>
       <r>   12.1254    0.0000 </r>
       <r>   12.1986    0.0000 </r>
       <r>   12.6770    0.0000 </r>
       <r>   13.3979    0.0000 </r>
       <r>   14.1046    0.0000 </r>
       <r>   14.8806    0.0000 </r>
       <r>   16.3552    0.0000 </r>
       <r>   17.7353    0.0000 </r>
       <r>   18.0867    0.0000 </r>
       <r>   18.8877    0.0000 </r>
[...]
       <r>   22.6769    0.0000 </r>
       <r>   22.9128    0.0000 </r>
       <r>   23.1494    0.0000 </r>
       <r>   23.2259    0.0000 </r>
       <r>   23.5089    0.0000 </r>
       <r>   23.9678    0.0000 </r>
       <r>   24.4151    0.0000 </r>
      </set>
      <set comment="kpoint 60">
       <r>  -15.5720    1.0000 </r>
       <r>  -15.5713    1.0000 </r>
       <r>  -15.5387    1.0000 </r>
       <r>  -15.5266    1.0000 </r>
       <r>  -15.4317    1.0000 </r>
       <r>  -15.4272    1.0000 </r>
       <r>  -15.3602    1.0000 </r>
       <r>  -15.3503    1.0000 </r>
       <r>  -15.3499    1.0000 </r>
       <r>  -15.3376    1.0000 </r>
       <r>   -8.1586    1.0000 </r>
       <r>   -7.8178    1.0000 </r>
       <r>   -2.2430    1.0000 </r>
       <r>   -1.6366    1.0000 </r>
       <r>    2.3979    1.0000 </r>
       <r>    3.0030    1.0000 </r>
       <r>    3.1520    1.0000 </r>
       <r>    3.2535    1.0000 </r>
       <r>    4.1362    1.0000 </r>
       <r>    5.2984    1.0000 </r>
       <r>    5.8129    0.0000 </r>
       <r>    6.7669    0.0000 </r>
       <r>    7.7191    0.0000 </r>
       <r>    8.4849    0.0000 </r>
       <r>    8.5065    0.0000 </r>
       <r>    8.9698    0.0000 </r>
       <r>   12.4051    0.0000 </r>
       <r>   12.4787    0.0000 </r>
       <r>   13.0414    0.0000 </r>
       <r>   13.4932    0.0000 </r>
       <r>   14.3603    0.0000 </r>
       <r>   14.3729    0.0000 </r>
       <r>   16.6659    0.0000 </r>
       <r>   18.2338    0.0000 </r>
       <r>   18.7083    0.0000 </r>
       <r>   19.2554    0.0000 </r>
       <r>   19.8730    0.0000 </r>
       <r>   20.0384    0.0000 </r>
       <r>   20.1192    0.0000 </r>
       <r>   21.6678    0.0000 </r>
       <r>   22.0942    0.0000 </r>
       <r>   22.6769    0.0000 </r>
       <r>   22.9126    0.0000 </r>
       <r>   23.1515    0.0000 </r>
       <r>   23.2268    0.0000 </r>
       <r>   23.5119    0.0000 </r>
       <r>   23.9614    0.0000 </r>
       <r>   24.4185    0.0000 </r>
      </set>
      <set comment="kpoint 61">
       <r>  -15.5723    1.0000 </r>
       <r>  -15.5710    1.0000 </r>
       <r>  -15.5388    1.0000 </r>
       <r>  -15.5266    1.0000 </r>
       <r>  -15.4317    1.0000 </r>
       <r>  -15.4272    1.0000 </r>
       <r>  -15.3601    1.0000 </r>
       <r>  -15.3503    1.0000 </r>
       <r>  -15.3499    1.0000 </r>
       <r>  -15.3376    1.0000 </r>
       <r>   -8.1604    1.0000 </r>
       <r>   -7.8163    1.0000 </r>
       <r>   -2.2386    1.0000 </r>
       <r>   -1.6329    1.0000 </r>
       <r>    2.3998    1.0000 </r>
       <r>    2.9486    1.0000 </r>
       <r>    3.1818    1.0000 </r>
       <r>    3.2526    1.0000 </r>
       <r>    4.1228    1.0000 </r>
       <r>    5.3031    1.0000 </r>
       <r>    5.8076    0.0000 </r>
       <r>    6.8103    0.0000 </r>
       <r>    7.7146    0.0000 </r>
       <r>    8.4685    0.0000 </r>
       <r>    8.5011    0.0000 </r>
       <r>    8.9787    0.0000 </r>
       <r>   12.4199    0.0000 </r>
       <r>   12.4964    0.0000 </r>
       <r>   13.0287    0.0000 </r>
       <r>   13.5107    0.0000 </r>
       <r>   14.3749    0.0000 </r>
       <r>   14.3913    0.0000 </r>
       <r>   16.6490    0.0000 </r>
       <r>   18.2002    0.0000 </r>
       <r>   18.7061    0.0000 </r>
       <r>   19.2343    0.0000 </r>
       <r>   19.8528    0.0000 </r>
       <r>   20.0729    0.0000 </r>
       <r>   20.0935    0.0000 </r>
       <r>   21.6536    0.0000 </r>
       <r>   22.0499    0.0000 </r>
       <r>   22.5348    0.0000 </r>
       <r>   22.8823    0.0000 </r>
       <r>   23.0791    0.0000 </r>
       <r>   23.3082    0.0000 </r>
       <r>   23.5686    0.0000 </r>
       <r>   24.0847    0.0000 </r>
       <r>   24.3310    0.0000 </r>
      </set>
     </set>
    </set>
   </array>
  </eigenvalues>
  <separator name="orbital magnetization" >
   <v name="MAGDIPOLOUT">      0.00000000      0.00000000      0.00000000</v>
  </separator>
  <dos>
   <i name="efermi">      5.47435173 </i>
   <total>
    <array>
     <dimension dim="1">gridpoints</dimension>
     <dimension dim="2">spin</dimension>
     <field>energy</field>
     <field>total</field>
     <field>integrated</field>
     <set>
      <set comment="spin 1">
       <r>   -17.5862     0.0000     0.0000 </r>
       <r>   -17.4386     0.0000     0.0000 </r>
       <r>   -17.2911     0.0000     0.0000 </r>
       <r>   -17.1435     0.0000     0.0000 </r>
       <r>   -16.9959     0.0000     0.0000 </r>
       <r>   -16.8483     0.0000     0.0000 </r>
       <r>   -16.7007     0.0000     0.0000 </r>
       <r>   -16.5531     0.0000     0.0000 </r>
       <r>   -16.4055     0.0000     0.0000 </r>
       <r>   -16.2579     0.0000     0.0000 </r>
       <r>   -16.1104     0.0000     0.0000 </r>
       <r>   -15.9628     0.0000     0.0000 </r>
       <r>   -15.8152     0.0000     0.0000 </r>
       <r>   -15.6676     0.0000     0.0000 </r>
       <r>   -15.5200    51.2842     7.5689 </r>
       <r>   -15.3724    27.8809    12.1149 </r>
       <r>   -15.2248     0.0000    20.0000 </r>
       <r>   -15.0772     0.0000    20.0000 </r>
       <r>   -14.9297     0.0000    20.0000 </r>
       <r>   -14.7821     0.0000    20.0000 </r>
       <r>   -14.6345     0.0000    20.0000 </r>
       <r>   -14.4869     0.0000    20.0000 </r>
       <r>   -14.3393     0.0000    20.0000 </r>
       <r>   -14.1917     0.0000    20.0000 </r>
       <r>   -14.0441     0.0000    20.0000 </r>
       <r>   -13.8965     0.0000    20.0000 </r>
       <r>   -13.7489     0.0000    20.0000 </r>
       <r>   -13.6014     0.0000    20.0000 </r>
       <r>   -13.4538     0.0000    20.0000 </r>
       <r>   -13.3062     0.0000    20.0000 </r>
       <r>   -13.1586     0.0000    20.0000 </r>
       <r>   -13.0110     0.0000    20.0000 </r>
       <r>   -12.8634     0.0000    20.0000 </r>
       <r>   -12.7158     0.0000    20.0000 </r>
       <r>   -12.5682     0.0000    20.0000 </r>
       <r>   -12.4207     0.0000    20.0000 </r>
       <r>   -12.2731     0.0000    20.0000 </r>
       <r>   -12.1255     0.0000    20.0000 </r>
       <r>   -11.9779     0.0000    20.0000 </r>
       <r>   -11.8303     0.0000    20.0000 </r>
       <r>   -11.6827     0.0000    20.0000 </r>
       <r>   -11.5351     0.0000    20.0000 </r>
       <r>   -11.3875     0.0000    20.0000 </r>
       <r>   -11.2400     0.0000    20.0000 </r>
       <r>   -11.0924     0.0000    20.0000 </r>
       <r>   -10.9448     0.0000    20.0000 </r>
       <r>   -10.7972     0.0000    20.0000 </r>
       <r>   -10.6496     0.0000    20.0000 </r>
       <r>   -10.5020     0.0000    20.0000 </r>
       <r>   -10.3544     0.0000    20.0000 </r>
       <r>   -10.2068     0.0000    20.0000 </r>
       <r>   -10.0593     0.0000    20.0000 </r>
       <r>    -9.9117     0.0000    20.0000 </r>
       <r>    -9.7641     0.0000    20.0000 </r>
       <r>    -9.6165     0.0000    20.0000 </r>
       <r>    -9.4689     0.0000    20.0000 </r>
       <r>    -9.3213     0.0000    20.0000 </r>
       <r>    -9.1737     0.0000    20.0000 </r>
       <r>    -9.0261     0.0000    20.0000 </r>
       <r>    -8.8786     0.0000    20.0000 </r>
       <r>    -8.7310     0.0000    20.0000 </r>
       <r>    -8.5834     0.0000    20.0000 </r>
       <r>    -8.4358     0.0000    20.0000 </r>
       <r>    -8.2882     0.0000    20.0000 </r>
       <r>    -8.1406     9.5366    21.9976 </r>
       <r>    -7.9930     0.0000    22.0000 </r>
       <r>    -7.8454     0.0001    22.0000 </r>
       <r>    -7.6979     0.0000    24.0000 </r>
       <r>    -7.5503     0.0000    24.0000 </r>
       <r>    -7.4027     0.0000    24.0000 </r>
       <r>    -7.2551     0.0000    24.0000 </r>
       <r>    -7.1075     0.0000    24.0000 </r>
       <r>    -6.9599     0.0000    24.0000 </r>
       <r>    -6.8123     0.0000    24.0000 </r>
       <r>    -6.6647     0.0000    24.0000 </r>
       <r>    -6.5172     0.0000    24.0000 </r>
       <r>    -6.3696     0.0000    24.0000 </r>
       <r>    -6.2220     0.0000    24.0000 </r>
       <r>    -6.0744     0.0000    24.0000 </r>
       <r>    -5.9268     0.0000    24.0000 </r>
       <r>    -5.7792     0.0000    24.0000 </r>
       <r>    -5.6316     0.0000    24.0000 </r>
       <r>    -5.4840     0.0000    24.0000 </r>
       <r>    -5.3364     0.0000    24.0000 </r>
       <r>    -5.1889     0.0000    24.0000 </r>
       <r>    -5.0413     0.0000    24.0000 </r>
       <r>    -4.8937     0.0000    24.0000 </r>
       <r>    -4.7461     0.0000    24.0000 </r>
       <r>    -4.5985     0.0000    24.0000 </r>
       <r>    -4.4509     0.0000    24.0000 </r>
       <r>    -4.3033     0.0000    24.0000 </r>
       <r>    -4.1557     0.0000    24.0000 </r>
       <r>    -4.0082     0.0000    24.0000 </r>
       <r>    -3.8606     0.0000    24.0000 </r>
       <r>    -3.7130     0.0000    24.0000 </r>
       <r>    -3.5654     0.0000    24.0000 </r>
       <r>    -3.4178     0.0000    24.0000 </r>
       <r>    -3.2702     0.0000    24.0000 </r>
       <r>    -3.1226     0.0000    24.0000 </r>
       <r>    -2.9750     0.0000    24.0000 </r>
       <r>    -2.8275     0.0000    24.0000 </r>
       <r>    -2.6799     0.0000    24.0000 </r>
       <r>    -2.5323     0.0000    24.0000 </r>
       <r>    -2.3847     0.0000    24.0000 </r>
       <r>    -2.2371     1.8014    24.2659 </r>
       <r>    -2.0895     0.0000    26.0000 </r>
       <r>    -1.9419     0.0000    26.0000 </r>
       <r>    -1.7943     0.0000    26.0000 </r>
       <r>    -1.6468     0.1200    26.0177 </r>
       <r>    -1.4992     3.9531    26.8785 </r>
       <r>    -1.3516     2.9227    27.8412 </r>
       <r>    -1.2040     0.0000    28.0000 </r>
       <r>    -1.0564     0.0000    28.0000 </r>
       <r>    -0.9088     0.0000    28.0000 </r>
       <r>    -0.7612     0.0000    28.0000 </r>
       <r>    -0.6136     0.0000    28.0000 </r>
       <r>    -0.4661     0.0000    28.0000 </r>
       <r>    -0.3185     0.0000    28.0000 </r>
       <r>    -0.1709     0.0000    28.0000 </r>
       <r>    -0.0233     0.0000    28.0000 </r>
       <r>     0.1243     0.0000    28.0000 </r>
       <r>     0.2719     0.0000    28.0000 </r>
       <r>     0.4195     0.0000    28.0000 </r>
       <r>     0.5671     0.0000    28.0000 </r>
       <r>     0.7146     0.0000    28.0000 </r>
       <r>     0.8622     0.0000    28.0000 </r>
       <r>     1.0098     0.0000    28.0000 </r>
       <r>     1.1574     0.0000    28.0000 </r>
       <r>     1.3050     0.0000    28.0000 </r>
       <r>     1.4526     0.0000    28.0000 </r>
       <r>     1.6002     0.0000    28.0000 </r>
       <r>     1.7478     0.0000    28.0000 </r>
       <r>     1.8953     0.0000    28.0000 </r>
       <r>     2.0429     0.0000    28.0000 </r>
       <r>     2.1905     1.7091    28.2522 </r>
       <r>     2.3381     4.7895    29.6249 </r>
       <r>     2.4857     0.0000    30.0000 </r>
       <r>     2.6333     0.0000    30.0000 </r>
       <r>     2.7809     0.4402    30.0650 </r>
       <r>     2.9285     5.6989    31.1362 </r>
       <r>     3.0761     5.6033    32.5319 </r>
       <r>     3.2236     1.7826    34.0664 </r>
       <r>     3.3712     0.0000    36.0000 </r>
       <r>     3.5188     0.0000    36.0000 </r>
       <r>     3.6664     0.0000    36.0000 </r>
       <r>     3.8140     0.0000    36.0000 </r>
       <r>     3.9616     0.0000    36.0000 </r>
       <r>     4.1092     0.0122    36.0018 </r>
       <r>     4.2568     2.6658    38.0000 </r>
       <r>     4.4043     0.0000    38.0000 </r>
       <r>     4.5519     0.0000    38.0000 </r>
       <r>     4.6995     0.0000    38.0000 </r>
       <r>     4.8471     0.0000    38.0000 </r>
       <r>     4.9947     0.0000    38.0000 </r>
       <r>     5.1423     0.0000    38.0000 </r>
       <r>     5.2899     0.9663    38.1426 </r>
       <r>     5.4375     9.0823    39.9962 </r>
       <r>     5.5850     0.0000    40.0000 </r>
       <r>     5.7326     3.4365    40.5072 </r>
       <r>     5.8802     3.9358    41.9907 </r>
       <r>     6.0278     0.0000    42.0000 </r>
       <r>     6.1754     0.0000    42.0000 </r>
       <r>     6.3230     0.0000    42.0000 </r>
       <r>     6.4706     0.0000    42.0000 </r>
       <r>     6.6182     3.4954    42.5159 </r>
       <r>     6.7657     5.4316    43.8836 </r>
       <r>     6.9133     0.0000    44.0000 </r>
       <r>     7.0609     0.0000    44.0000 </r>
       <r>     7.2085     0.0000    44.0000 </r>
       <r>     7.3561     0.0000    44.0000 </r>
       <r>     7.5037     0.0000    44.0000 </r>
       <r>     7.6513     0.0000    44.0000 </r>
       <r>     7.7989     3.4936    44.5812 </r>
       <r>     7.9464     3.3679    45.9069 </r>
       <r>     8.0940     0.0000    46.0000 </r>
       <r>     8.2416     0.0351    46.0052 </r>
       <r>     8.3892     0.8857    46.1963 </r>
       <r>     8.5368     2.9059    46.9535 </r>
       <r>     8.6844     2.3767    47.9573 </r>
       <r>     8.8320     4.9829    48.9649 </r>
       <r>     8.9796     5.0964    49.9981 </r>
       <r>     9.1271     2.4437    50.5246 </r>
       <r>     9.2747     1.7106    51.5312 </r>
       <r>     9.4223     1.9994    52.0000 </r>
       <r>     9.5699     0.0000    52.0000 </r>
       <r>     9.7175     0.0000    52.0000 </r>
       <r>     9.8651     0.0000    52.0000 </r>
       <r>    10.0127     0.0000    52.0000 </r>
       <r>    10.1603     0.0000    52.0000 </r>
       <r>    10.3078     0.0000    52.0000 </r>
       <r>    10.4554     0.0000    52.0000 </r>
       <r>    10.6030     0.0000    52.0000 </r>
       <r>    10.7506     0.0000    52.0000 </r>
       <r>    10.8982     0.0000    52.0000 </r>
       <r>    11.0458     0.0000    52.0000 </r>
       <r>    11.1934     0.0000    52.0000 </r>
       <r>    11.3410     0.0000    52.0000 </r>
       <r>    11.4886     0.0000    52.0000 </r>
       <r>    11.6361     0.0000    52.0000 </r>
       <r>    11.7837     0.0000    52.0000 </r>
       <r>    11.9313     0.0000    52.0000 </r>
       <r>    12.0789     0.6671    52.0985 </r>
       <r>    12.2265     5.5367    53.4073 </r>
       <r>    12.3741     3.7596    54.3909 </r>
       <r>    12.5217     5.3261    55.5402 </r>
       <r>    12.6693     2.7081    56.2685 </r>
       <r>    12.8168     3.5087    57.1408 </r>
       <r>    12.9644     0.4443    57.7049 </r>
       <r>    13.1120     1.5551    58.0000 </r>
       <r>    13.2596     0.0000    58.0000 </r>
       <r>    13.4072     1.7457    58.2576 </r>
       <r>    13.5548     8.4127    59.7990 </r>
       <r>    13.7024     0.0000    60.0000 </r>
       <r>    13.8500     0.0000    60.0000 </r>
       <r>    13.9975     0.0024    60.0003 </r>
       <r>    14.1451     7.3654    61.2182 </r>
       <r>    14.2927     1.1112    61.7050 </r>
       <r>    14.4403     1.9543    62.2229 </r>
       <r>    14.5879     0.9455    62.5330 </r>
       <r>    14.7355     1.9888    63.2443 </r>
       <r>    14.8831     1.8364    63.9104 </r>
       <r>    15.0307     0.4443    64.0000 </r>
       <r>    15.1782     0.0000    64.0000 </r>
       <r>    15.3258     0.0000    64.0000 </r>
       <r>    15.4734     0.0000    64.0000 </r>
       <r>    15.6210     0.0000    64.0000 </r>
       <r>    15.7686     0.0000    64.0000 </r>
       <r>    15.9162     0.0000    64.0000 </r>
       <r>    16.0638     0.0000    64.0000 </r>
       <r>    16.2114     0.0000    64.0000 </r>
       <r>    16.3589     1.4306    64.2111 </r>
       <r>    16.5065     2.8646    64.7179 </r>
       <r>    16.6541     2.7540    65.8163 </r>
       <r>    16.8017     0.0000    66.0000 </r>
       <r>    16.9493     0.0000    66.0000 </r>
       <r>    17.0969     0.0000    66.0000 </r>
       <r>    17.2445     0.0000    66.0000 </r>
       <r>    17.3921     0.0000    66.0000 </r>
       <r>    17.5396     0.0000    66.0000 </r>
       <r>    17.6872     0.0000    66.0000 </r>
       <r>    17.8348     0.0000    66.2951 </r>
       <r>    17.9824     1.7748    66.5570 </r>
       <r>    18.1300     3.0886    67.1116 </r>
       <r>    18.2776    10.2190    69.4098 </r>
       <r>    18.4252     0.0097    69.4113 </r>
       <r>    18.5728     0.0000    69.7049 </r>
       <r>    18.7203     1.9566    69.9937 </r>
       <r>    18.8679     0.0107    70.0016 </r>
       <r>    19.0155     0.4448    70.2952 </r>
       <r>    19.1631     0.4680    70.5937 </r>
       <r>    19.3107     3.9987    72.0000 </r>
       <r>    19.4583     1.9976    72.2948 </r>
       <r>    19.6059     0.9448    72.4345 </r>
       <r>    19.7535     1.3403    72.7880 </r>
       <r>    19.9011     2.9370    73.8433 </r>
       <r>    20.0486     7.0759    75.3394 </r>
       <r>    20.1962     4.2398    76.1011 </r>
       <r>    20.3438     1.2236    76.4757 </r>
       <r>    20.4914     1.3379    77.4761 </r>
       <r>    20.6390     1.0390    77.8583 </r>
       <r>    20.7866     0.0000    78.0000 </r>
       <r>    20.9342     0.0000    78.0000 </r>
       <r>    21.0818     0.0000    78.0000 </r>
       <r>    21.2293     0.0000    78.0000 </r>
       <r>    21.3769     0.0000    78.0000 </r>
       <r>    21.5245     4.7669    78.7691 </r>
       <r>    21.6721     3.6650    80.0163 </r>
       <r>    21.8197     2.5915    80.6775 </r>
       <r>    21.9673     1.6189    81.4848 </r>
       <r>    22.1149     1.9475    81.9923 </r>
       <r>    22.2625     0.4443    82.1311 </r>
       <r>    22.4100     2.9715    82.6353 </r>
       <r>    22.5576     4.1322    83.4951 </r>
       <r>    22.7052     4.2353    84.3628 </r>
       <r>    22.8528     3.8828    86.0813 </r>
       <r>    23.0004     2.6342    86.9462 </r>
       <r>    23.1480     4.1485    87.8582 </r>
       <r>    23.2956     2.0669    88.3050 </r>
       <r>    23.4432     7.7136    89.9253 </r>
       <r>    23.5907     2.8869    91.4752 </r>
       <r>    23.7383     1.6607    91.9828 </r>
       <r>    23.8859     1.7001    92.4804 </r>
       <r>    24.0335     2.3000    93.0936 </r>
       <r>    24.1811     1.1220    93.9689 </r>
       <r>    24.3287     2.9493    94.7959 </r>
       <r>    24.4763     2.9079    95.6423 </r>
       <r>    24.6239     0.6665    95.9344 </r>
       <r>    24.7714     0.0000    96.0000 </r>
       <r>    24.9190     0.0000    96.0000 </r>
       <r>    25.0666     0.0000    96.0000 </r>
       <r>    25.2142     0.0000    96.0000 </r>
       <r>    25.3618     0.0000    96.0000 </r>
       <r>    25.5094     0.0000    96.0000 </r>
       <r>    25.6570     0.0000    96.0000 </r>
       <r>    25.8046     0.0000    96.0000 </r>
       <r>    25.9521     0.0000    96.0000 </r>
       <r>    26.0997     0.0000    96.0000 </r>
       <r>    26.2473     0.0000    96.0000 </r>
       <r>    26.3949     0.0000    96.0000 </r>
       <r>    26.5425     0.0000    96.0000 </r>
       <r>    26.6901     0.0000    96.0000 </r>
      </set>
     </set>
    </array>
   </total>
  </dos>
 </calculation>
 <structure name="finalpos" >
  <crystal>
   <varray name="basis" >
    <v>       2.13552400      -5.90816938      -0.00000000 </v>
    <v>       2.13552401       5.90816938       0.00000000 </v>
    <v>       0.00000000       0.00000000       4.24739298 </v>
   </varray>
   <i name="volume">    107.17903332 </i>
   <varray name="rec_basis" >
    <v>       0.23413457      -0.08462858       0.00000000 </v>
    <v>       0.23413457       0.08462858      -0.00000000 </v>
    <v>      -0.00000000      -0.00000000       0.23543854 </v>
   </varray>
  </crystal>
  <varray name="positions" >
   <v>       0.37512364       0.62487636       0.75000000 </v>
   <v>       0.62487636       0.37512364       0.25000000 </v>
   <v>       0.14341737       0.85658263       0.75000000 </v>
   <v>       0.85658263       0.14341737       0.25000000 </v>
  </varray>
 </structure>
</modeling>
