 vasp.5.4.4.18Apr17-6-g9f103f2a35 (build Mar 20 2018 18:07:30) complex           
 executed on             LinuxGNU date 2020.07.10  15:08:51
 running on    8 total cores
 distrk:  each k-point on    8 cores,    1 groups
 distr:  one band on NCORES_PER_BAND=   2 cores,    4 groups


--------------------------------------------------------------------------------------------------------


 INCAR:
 POTCAR:    PAW_PBE Te 08Apr2002                  
 POTCAR:    PAW_PBE Pb_d 06Sep2000                
 POTCAR:    PAW_PBE Te 08Apr2002                  
   VRHFIN =Te: s2p4                                                             
   LEXCH  = PE                                                                  
   EATOM  =   223.2721 eV,   16.4100 Ry                                         
                                                                                
   TITEL  = PAW_PBE Te 08Apr2002                                                
   LULTRA =        F    use ultrasoft PP ?                                      
   IUNSCR =        1    unscreen: 0-lin 1-nonlin 2-no                           
   RPACOR =    2.200    partial core radius                                     
   POMASS =  127.600; ZVAL   =    6.000    mass and valenz                      
   RCORE  =    2.300    outmost cutoff radius                                   
   RWIGS  =    2.900; RWIGS  =    1.535    wigner-seitz radius (au A)           
   ENMAX  =  174.982; ENMIN  =  131.236 eV                                      
   ICORE  =        3    local potential                                         
   LCOR   =        T    correct aug charges                                     
   LPAW   =        T    paw PP                                                  
   EAUG   =  368.792                                                            
   DEXC   =    0.000                                                            
   RMAX   =    2.345    core radius for proj-oper                               
   RAUG   =    1.300    factor for augmentation sphere                          
   RDEP   =    2.397    radius for radial grids                                 
   RDEPT  =    2.174    core radius for aug-charge                              
                                                                                
   Atomic configuration                                                         
   13 entries                                                                   
     n  l   j            E        occ.                                          
     1  0  0.50    -31621.2075   2.0000                                         
     2  0  0.50     -4848.7941   2.0000                                         
     2  1  1.50     -4352.1960   6.0000                                         
     3  0  0.50      -964.9612   2.0000                                         
     3  1  1.50      -803.6179   6.0000                                         
     3  2  2.50      -559.8710  10.0000                                         
     4  0  0.50      -164.3522   2.0000                                         
     4  1  1.50      -114.3756   6.0000                                         
     4  2  2.50       -41.6483  10.0000                                         
     5  0  0.50       -15.1072   2.0000                                         
     5  1  0.50        -5.9526   4.0000                                         
     5  2  1.50        -5.4423   0.0000                                         
     4  3  2.50        -5.4423   0.0000                                         
   Description                                                                  
     l       E           TYP  RCUT    TYP  RCUT                                 
     0    -15.1072389     23  2.300                                             
     0    -16.4678215     23  2.300                                             
     1     -5.9526306     23  2.300                                             
     1     -2.4873968     23  2.300                                             
     2     -5.4423304     23  2.300                                             
     3     -1.3605826     23  2.300                                             
  local pseudopotential read in
  partial core-charges read in
  partial kinetic energy density read in
  atomic valenz-charges read in
  non local Contribution for L=           0  read in
    real space projection operators read in
  non local Contribution for L=           0  read in
    real space projection operators read in
  non local Contribution for L=           1  read in
    real space projection operators read in
  non local Contribution for L=           1  read in
    real space projection operators read in
  non local Contribution for L=           2  read in
    real space projection operators read in
    PAW grid and wavefunctions read in

   number of l-projection  operators is LMAX  =           5
   number of lm-projection operators is LMMAX =          13

 POTCAR:    PAW_PBE Pb_d 06Sep2000                
   VRHFIN =Pb:                                                                  
   LEXCH  = PE                                                                  
   EATOM  =  1661.6185 eV,  122.1255 Ry                                         
                                                                                
   TITEL  = PAW_PBE Pb_d 06Sep2000                                              
   LULTRA =        F    use ultrasoft PP ?                                      
   IUNSCR =        1    unscreen: 0-lin 1-nonlin 2-no                           
   RPACOR =    2.200    partial core radius                                     
   POMASS =  207.200; ZVAL   =   14.000    mass and valenz                      
   RCORE  =    2.500    outmost cutoff radius                                   
   RWIGS  =    3.260; RWIGS  =    1.725    wigner-seitz radius (au A)           
   ENMAX  =  237.835; ENMIN  =  178.376 eV                                      
   ICORE  =        3    local potential                                         
   LCOR   =        T    correct aug charges                                     
   LPAW   =        T    paw PP                                                  
   EAUG   =  391.914                                                            
   DEXC   =    0.000                                                            
   RMAX   =    2.565    core radius for proj-oper                               
   RAUG   =    1.300    factor for augmentation sphere                          
   RDEP   =    2.643    radius for radial grids                                 
   RDEPT  =    2.092    core radius for aug-charge                              
                                                                                
   Atomic configuration                                                         
   16 entries                                                                   
     n  l   j            E        occ.                                          
     1  0  0.50    -88091.8466   2.0000                                         
     2  0  0.50    -15753.4197   2.0000                                         
     2  1  1.50    -13508.1797   6.0000                                         
     3  0  0.50     -3781.7194   2.0000                                         
     3  1  1.50     -3138.2529   6.0000                                         
     3  2  2.50     -2483.2977  10.0000                                         
     4  0  0.50      -856.2895   2.0000                                         
     4  1  1.50      -645.4942   6.0000                                         
     4  2  2.50      -401.8768  10.0000                                         
     4  3  3.50      -132.9059  14.0000                                         
     5  0  0.50      -144.0950   2.0000                                         
     5  1  1.50       -85.7879   6.0000                                         
     5  2  2.50       -21.1769  10.0000                                         
     6  0  0.50       -12.0372   2.0000                                         
     6  1  1.50        -3.4971   2.0000                                         
     5  3  2.50        -2.7212   0.0000                                         
   Description                                                                  
     l       E           TYP  RCUT    TYP  RCUT                                 
     2    -21.1768523     23  2.500                                             
     2      1.3605826     23  2.500                                             
     0    -12.0371562     23  2.500                                             
     0     13.6058260     23  2.500                                             
     1     -3.4971339     23  2.500                                             
     1     13.6058260     23  2.500                                             
     3     -1.3605826      7  2.500                                             
  local pseudopotential read in
  partial core-charges read in
  partial kinetic energy density read in
  atomic valenz-charges read in
  non local Contribution for L=           2  read in
    real space projection operators read in
  non local Contribution for L=           2  read in
    real space projection operators read in
  non local Contribution for L=           0  read in
    real space projection operators read in
  non local Contribution for L=           0  read in
    real space projection operators read in
  non local Contribution for L=           1  read in
    real space projection operators read in
  non local Contribution for L=           1  read in
    real space projection operators read in
    PAW grid and wavefunctions read in

   number of l-projection  operators is LMAX  =           6
   number of lm-projection operators is LMMAX =          18

  PAW_PBE Te 08Apr2002                  :
 energy of atom  1       EATOM= -223.2721
 kinetic energy error for atom=    0.0004 (will be added to EATOM!!)
  PAW_PBE Pb_d 06Sep2000                :
 energy of atom  2       EATOM=-1661.6185
 kinetic energy error for atom=    0.0014 (will be added to EATOM!!)


 POSCAR: Te1 Pb1                                 
  positions in direct lattice
  No initial velocities read in
 exchange correlation table for  LEXCH =        8
   RHO(1)=    0.500       N(1)  =     2000
   RHO(2)=  100.500       N(2)  =     4000



--------------------------------------------------------------------------------------------------------


 ion  position               nearest neighbor table
   1  0.000  0.000  0.000-   2 3.29   2 3.29   2 3.29   2 3.29   2 3.29   2 3.29
   2  0.500  0.500  0.500-   1 3.29   1 3.29   1 3.29   1 3.29   1 3.29   1 3.29


IMPORTANT INFORMATION: All symmetrisations will be switched off!
NOSYMM: (Re-)initialisation of all symmetry stuff for point group C_1.



 KPOINTS: Non SCF run along symmetry lines        
  k-points in reciprocal lattice
Space group operators:
 irot       det(A)        alpha          n_x          n_y          n_z        tau_x        tau_y        tau_z
    1     1.000000     0.000001     1.000000     0.000000     0.000000     0.000000     0.000000     0.000000


--------------------------------------------------------------------------------------------------------




 Dimension of arrays:
   k-points           NKPTS =    200   k-points in BZ     NKDIM =    200   number of bands    NBANDS=     28
   number of dos      NEDOS =    301   number of ions     NIONS =      2
   non local maximal  LDIM  =      6   non local SUM 2l+1 LMDIM =     18
   total plane-waves  NPLWV =  64000
   max r-space proj   IRMAX =      1   max aug-charges    IRDMAX= 419186
   dimension x,y,z NGX =    40 NGY =   40 NGZ =   40
   dimension x,y,z NGXF=    80 NGYF=   80 NGZF=   80
   support grid    NGXF=   160 NGYF=  160 NGZF=  160
   ions per type =               1   1
   NGX,Y,Z   is equivalent  to a cutoff of  14.30, 14.30, 14.30 a.u.
   NGXF,Y,Z  is equivalent  to a cutoff of  28.61, 28.61, 28.61 a.u.

 SYSTEM =  PbTe                                    
 POSCAR =  Te1 Pb1                                 

 Startparameter for this run:
   NWRITE =      2    write-flag & timer
   PREC   = accura    normal or accurate (medium, high low for compatibility)
   ISTART =      0    job   : 0-new  1-cont  2-samecut
   ICHARG =     11    charge: 1-file 2-atom 10-const
   ISPIN  =      1    spin polarized calculation?
   LNONCOLLINEAR =      T non collinear calculations
   LSORBIT =      T    spin-orbit coupling
   INIWAV =      1    electr: 0-lowe 1-rand  2-diag
   LASPH  =      F    aspherical Exc in radial PAW
   METAGGA=      F    non-selfconsistent MetaGGA calc.

 Electronic Relaxation 1
   ENCUT  =  600.0 eV  44.10 Ry    6.64 a.u.   9.29  9.29  9.29*2*pi/ulx,y,z
   ENINI  =  600.0     initial cutoff
   ENAUG  =  391.9 eV  augmentation charge cutoff
   NELM   =     60;   NELMIN=  2; NELMDL=  0     # of ELM steps 
   EDIFF  = 0.1E-06   stopping-criterion for ELM
   LREAL  =      F    real-space projection
   NLSPLINE    = F    spline interpolate recip. space projectors
   LCOMPAT=      F    compatible to vasp.4.4
   GGA_COMPAT  = F    GGA compatible to vasp.4.4-vasp.4.6
   LMAXPAW     = -100 max onsite density
   LMAXMIX     =    4 max onsite mixed and CHGCAR
   VOSKOWN=      0    Vosko Wilk Nusair interpolation
   ROPT   =    0.00000   0.00000
 Ionic relaxation
   EDIFFG = -.1E-02   stopping-criterion for IOM
   NSW    =      0    number of steps for IOM
   NBLOCK =      1;   KBLOCK =      1    inner block; outer block 
   IBRION =     -1    ionic relax: 0-MD 1-quasi-New 2-CG
   NFREE  =      0    steps in history (QN), initial steepest desc. (CG)
   ISIF   =      2    stress and relaxation
   IWAVPR =     10    prediction:  0-non 1-charg 2-wave 3-comb
   ISYM   =     -1    0-nonsym 1-usesym 2-fastsym
   LCORR  =      T    Harris-Foulkes like correction to forces

   POTIM  = 0.5000    time-step for ionic-motion
   TEIN   =    0.0    initial temperature
   TEBEG  =    0.0;   TEEND  =   0.0 temperature during run
   SMASS  =  -3.00    Nose mass-parameter (am)
   estimated Nose-frequenzy (Omega)   =  0.10E-29 period in steps =****** mass=  -0.494E-27a.u.
   SCALEE = 1.0000    scale energy and forces
   NPACO  =    256;   APACO  = 16.0  distance and # of slots for P.C.
   PSTRESS=    0.0 pullay stress

  Mass of Ions in am
   POMASS = 127.60207.20
  Ionic Valenz
   ZVAL   =   6.00 14.00
  Atomic Wigner-Seitz radii
   RWIGS  =  -1.00 -1.00
  virtual crystal weights 
   VCA    =   1.00  1.00
   NELECT =      20.0000    total number of electrons
   NUPDOWN=      -1.0000    fix difference up-down

 DOS related values:
   EMIN   =  10.00;   EMAX   =-10.00  energy-range for DOS
   EFERMI =   0.00
   ISMEAR =     0;   SIGMA  =   0.01  broadening in eV -4-tet -1-fermi 0-gaus

 Electronic relaxation 2 (details)
   IALGO  =     58    algorithm
   LDIAG  =      T    sub-space diagonalisation (order eigenvalues)
   LSUBROT=      F    optimize rotation matrix (better conditioning)
   TURBO    =      0    0=normal 1=particle mesh
   IRESTART =      0    0=no restart 2=restart with 2 vectors
   NREBOOT  =      0    no. of reboots
   NMIN     =      0    reboot dimension
   EREF     =   0.00    reference energy to select bands
   IMIX   =      4    mixing-type and parameters
     AMIX     =   0.40;   BMIX     =  1.00
     AMIX_MAG =   1.60;   BMIX_MAG =  1.00
     AMIN     =   0.10
     WC   =   100.;   INIMIX=   1;  MIXPRE=   1;  MAXMIX= -45

 Intra band minimization:
   WEIMIN = 0.0000     energy-eigenvalue tresh-hold
   EBREAK =  0.89E-09  absolut break condition
   DEPER  =   0.30     relativ break condition  

   TIME   =   0.40     timestep for ELM

  volume/ion in A,a.u.               =      35.53       239.79
  Fermi-wavevector in a.u.,A,eV,Ry     =   1.072827  2.027349 15.659730  1.150958
  Thomas-Fermi vector in A             =   2.208608

 Write flags
   LWAVE        =      F    write WAVECAR
   LDOWNSAMPLE  =      F    k-point downsampling of WAVECAR
   LCHARG       =      F    write CHGCAR
   LVTOT        =      F    write LOCPOT, total local potential
   LVHAR        =      F    write LOCPOT, Hartree potential only
   LELF         =      F    write electronic localiz. function (ELF)
   LORBIT       =      0    0 simple, 1 ext, 2 COOP (PROOUT), +10 PAW based schemes


 Dipole corrections
   LMONO  =      F    monopole corrections only (constant potential shift)
   LDIPOL =      F    correct potential (dipole corrections)
   IDIPOL =      0    1-x, 2-y, 3-z, 4-all directions 
   EPSILON=  1.0000000 bulk dielectric constant

 Exchange correlation treatment:
   GGA     =    --    GGA type
   LEXCH   =     8    internal setting for exchange type
   VOSKOWN=      0    Vosko Wilk Nusair interpolation
   LHFCALC =     F    Hartree Fock is set to
   LHFONE  =     F    Hartree Fock one center treatment
   AEXX    =    0.0000 exact exchange contribution

 Linear response parameters
   LEPSILON=     F    determine dielectric tensor
   LRPA    =     F    only Hartree local field effects (RPA)
   LNABLA  =     F    use nabla operator in PAW spheres
   LVEL    =     F    velocity operator in full k-point grid
   LINTERFAST=   F  fast interpolation
   KINTER  =     0    interpolate to denser k-point grid
   CSHIFT  =0.1000    complex shift for real part using Kramers Kronig
   OMEGAMAX=  -1.0    maximum frequency
   DEG_THRESHOLD= 0.2000000E-02 threshold for treating states as degnerate
   RTIME   =   -0.100 relaxation time in fs
  (WPLASMAI=    0.000 imaginary part of plasma frequency in eV, 0.658/RTIME)
   DFIELD  = 0.0000000 0.0000000 0.0000000 field for delta impulse in time

 Orbital magnetization related:
   ORBITALMAG=     F  switch on orbital magnetization
   LCHIMAG   =     F  perturbation theory with respect to B field
   DQ        =  0.001000  dq finite difference perturbation B field
   LLRAUG    =     F  two centre corrections for induced B field



--------------------------------------------------------------------------------------------------------


 Static calculation
 charge density and potential remain constant during run
 non collinear spin polarized calculation
 Conjugate gradient for all bands (Freysoldt, et al. PRB 79, 241103 (2009))
 preconditioned conjugated gradient   charged. constant during bandupdate  
 perform sub-space diagonalisation
    before iterative eigenvector-optimisation
 no mixing
 using additional bands           18
 reciprocal scheme for non local part
 use partial core corrections
 calculate Harris-corrections to forces   (improved forces if not selfconsistent)
 use gradient corrections 
 WARNING: stress and forces are not correct
  (second derivative of E(xc) not defined)
 use of overlap-Matrix (Vanderbilt PP)
 Gauss-broadening in eV      SIGMA  =   0.01


--------------------------------------------------------------------------------------------------------


  energy-cutoff  :      600.00
  volume of cell :       71.07
      direct lattice vectors                 reciprocal lattice vectors
     0.000000000  3.287596300  3.287596300    -0.152086800  0.152086800  0.152086800
     3.287596300  0.000000000  3.287596300     0.152086800 -0.152086800  0.152086800
     3.287596300  3.287596300  0.000000000     0.152086800  0.152086800 -0.152086800

  length of vectors
     4.649363275  4.649363275  4.649363275     0.263422064  0.263422064  0.263422064



 k-points in units of 2pi/SCALE and weight: Non SCF run along symmetry lines        
   0.00000000  0.00000000  0.00000000       0.005
   0.00000000  0.00524437  0.00000000       0.005
   0.00000000  0.01048874  0.00000000       0.005
   0.00000000  0.01573312  0.00000000       0.005
   0.00000000  0.02097749  0.00000000       0.005
   0.00000000  0.02622186  0.00000000       0.005
   0.00000000  0.03146623  0.00000000       0.005
   0.00000000  0.03671061  0.00000000       0.005
   0.00000000  0.04195498  0.00000000       0.005
   0.00000000  0.04719935 -0.00000000       0.005
   0.00000000  0.05244372  0.00000000       0.005
  -0.00000000  0.05768810  0.00000000       0.005
   0.00000000  0.06293247  0.00000000       0.005
   0.00000000  0.06817684  0.00000000       0.005
   0.00000000  0.07342121  0.00000000       0.005
   0.00000000  0.07866559  0.00000000       0.005
   0.00000000  0.08390996  0.00000000       0.005
   0.00000000  0.08915433  0.00000000       0.005
   0.00000000  0.09439870 -0.00000000       0.005
   0.00000000  0.09964308  0.00000000       0.005
   0.00000000  0.10488745  0.00000000       0.005
   0.00000000  0.11013182  0.00000000       0.005
  -0.00000000  0.11537619  0.00000000       0.005
  -0.00000000  0.12062057 -0.00000000       0.005
   0.00000000  0.12586494  0.00000000       0.005
  -0.00000000  0.13110931  0.00000000       0.005
   0.00000000  0.13635368  0.00000000       0.005
   0.00000000  0.14159805  0.00000000       0.005
   0.00000000  0.14684243  0.00000000       0.005
   0.00000000  0.15208680  0.00000000       0.005
   0.00000000  0.15208680  0.00000000       0.005
   0.00506956  0.15208680 -0.00000000       0.005
   0.01013912  0.15208680  0.00000000       0.005
   0.01520868  0.15208680 -0.00000000       0.005
   0.02027824  0.15208680  0.00000000       0.005
   0.02534780  0.15208680 -0.00000000       0.005
   0.03041736  0.15208680  0.00000000       0.005
   0.03548692  0.15208680  0.00000000       0.005
   0.04055648  0.15208680  0.00000000       0.005
   0.04562604  0.15208680  0.00000000       0.005
   0.05069560  0.15208680  0.00000000       0.005
   0.05576516  0.15208680 -0.00000000       0.005
   0.06083472  0.15208680 -0.00000000       0.005
   0.06590428  0.15208680  0.00000000       0.005
   0.07097384  0.15208680  0.00000000       0.005
   0.07604340  0.15208680  0.00000000       0.005
   0.07604340  0.15208680  0.00000000       0.005
   0.07949992  0.14863028 -0.00000000       0.005
   0.08295644  0.14517376 -0.00000000       0.005
   0.08641295  0.14171725 -0.00000000       0.005
   0.08986947  0.13826073 -0.00000000       0.005
   0.09332599  0.13480421 -0.00000000       0.005
   0.09678251  0.13134769  0.00000000       0.005
   0.10023903  0.12789117 -0.00000000       0.005
   0.10369555  0.12443465  0.00000000       0.005
   0.10715206  0.12097814  0.00000000       0.005
   0.11060858  0.11752162  0.00000000       0.005
   0.11406510  0.11406510  0.00000000       0.005
   0.11406510  0.11406510  0.00000000       0.005
   0.11038558  0.11038558  0.00000000       0.005
   0.10670606  0.10670606 -0.00000000       0.005
   0.10302654  0.10302654 -0.00000000       0.005
   0.09934702  0.09934702 -0.00000000       0.005
   0.09566750  0.09566750  0.00000000       0.005
   0.09198798  0.09198798  0.00000000       0.005
   0.08830846  0.08830846  0.00000000       0.005
   0.08462894  0.08462894  0.00000000       0.005
   0.08094943  0.08094943 -0.00000000       0.005
   0.07726991  0.07726991  0.00000000       0.005
   0.07359039  0.07359039 -0.00000000       0.005
   0.06991087  0.06991087  0.00000000       0.005
   0.06623135  0.06623135  0.00000000       0.005
   0.06255183  0.06255183  0.00000000       0.005
   0.05887231  0.05887231  0.00000000       0.005
   0.05519279  0.05519279  0.00000000       0.005
   0.05151327  0.05151327 -0.00000000       0.005
   0.04783375  0.04783375  0.00000000       0.005
   0.04415423  0.04415423  0.00000000       0.005
   0.04047471  0.04047471  0.00000000       0.005
   0.03679519  0.03679519  0.00000000       0.005
   0.03311567  0.03311567 -0.00000000       0.005
   0.02943615  0.02943615  0.00000000       0.005
   0.02575664  0.02575664 -0.00000000       0.005
   0.02207712  0.02207712 -0.00000000       0.005
   0.01839760  0.01839760  0.00000000       0.005
   0.01471808  0.01471808 -0.00000000       0.005
   0.01103856  0.01103856 -0.00000000       0.005
   0.00735904  0.00735904  0.00000000       0.005
   0.00367952  0.00367952 -0.00000000       0.005
   0.00000000  0.00000000  0.00000000       0.005
   0.00000000  0.00000000  0.00000000       0.005
   0.00304174  0.00304174  0.00304174       0.005
   0.00608347  0.00608347  0.00608347       0.005
   0.00912521  0.00912521  0.00912521       0.005
   0.01216694  0.01216694  0.01216694       0.005
   0.01520868  0.01520868  0.01520868       0.005
   0.01825042  0.01825042  0.01825042       0.005
   0.02129215  0.02129215  0.02129215       0.005
   0.02433389  0.02433389  0.02433389       0.005
   0.02737562  0.02737562  0.02737562       0.005
   0.03041736  0.03041736  0.03041736       0.005
   0.03345910  0.03345910  0.03345910       0.005
   0.03650083  0.03650083  0.03650083       0.005
   0.03954257  0.03954257  0.03954257       0.005
   0.04258430  0.04258430  0.04258430       0.005
   0.04562604  0.04562604  0.04562604       0.005
   0.04866778  0.04866778  0.04866778       0.005
   0.05170951  0.05170951  0.05170951       0.005
   0.05475125  0.05475125  0.05475125       0.005
   0.05779298  0.05779298  0.05779298       0.005
   0.06083472  0.06083472  0.06083472       0.005
   0.06387646  0.06387646  0.06387646       0.005
   0.06691819  0.06691819  0.06691819       0.005
   0.06995993  0.06995993  0.06995993       0.005
   0.07300166  0.07300166  0.07300166       0.005
   0.07604340  0.07604340  0.07604340       0.005
   0.07604340  0.07604340  0.07604340       0.005
   0.07393108  0.08026803  0.07393108       0.005
   0.07181877  0.08449267  0.07181877       0.005
   0.06970645  0.08871730  0.06970645       0.005
   0.06759413  0.09294193  0.06759413       0.005
   0.06548182  0.09716657  0.06548182       0.005
   0.06336950  0.10139120  0.06336950       0.005
   0.06125718  0.10561583  0.06125718       0.005
   0.05914487  0.10984047  0.05914487       0.005
   0.05703255  0.11406510  0.05703255       0.005
   0.05492023  0.11828973  0.05492023       0.005
   0.05280792  0.12251437  0.05280792       0.005
   0.05069560  0.12673900  0.05069560       0.005
   0.04858328  0.13096363  0.04858328       0.005
   0.04647097  0.13518827  0.04647097       0.005
   0.04435865  0.13941290  0.04435865       0.005
   0.04224633  0.14363753  0.04224633       0.005
   0.04013402  0.14786217  0.04013402       0.005
   0.03802170  0.15208680  0.03802170       0.005
   0.03802170  0.15208680  0.03802170       0.005
   0.04147822  0.15208680  0.03456518       0.005
   0.04493474  0.15208680  0.03110866       0.005
   0.04839125  0.15208680  0.02765215       0.005
   0.05184777  0.15208680  0.02419563       0.005
   0.05530429  0.15208680  0.02073911       0.005
   0.05876081  0.15208680  0.01728259       0.005
   0.06221733  0.15208680  0.01382607       0.005
   0.06567385  0.15208680  0.01036955       0.005
   0.06913036  0.15208680  0.00691304       0.005
   0.07258688  0.15208680  0.00345652       0.005
   0.07604340  0.15208680  0.00000000       0.005
   0.07604340  0.15208680  0.00000000       0.005
   0.07604340  0.14846569  0.00362111       0.005
   0.07604340  0.14484457  0.00724223       0.005
   0.07604340  0.14122346  0.01086334       0.005
   0.07604340  0.13760234  0.01448446       0.005
   0.07604340  0.13398123  0.01810557       0.005
   0.07604340  0.13036011  0.02172669       0.005
   0.07604340  0.12673900  0.02534780       0.005
   0.07604340  0.12311789  0.02896891       0.005
   0.07604340  0.11949677  0.03259003       0.005
   0.07604340  0.11587566  0.03621114       0.005
   0.07604340  0.11225454  0.03983226       0.005
   0.07604340  0.10863343  0.04345337       0.005
   0.07604340  0.10501231  0.04707449       0.005
   0.07604340  0.10139120  0.05069560       0.005
   0.07604340  0.09777009  0.05431671       0.005
   0.07604340  0.09414897  0.05793783       0.005
   0.07604340  0.09052786  0.06155894       0.005
   0.07604340  0.08690674  0.06518006       0.005
   0.07604340  0.08328563  0.06880117       0.005
   0.07604340  0.07966451  0.07242229       0.005
   0.07604340  0.07604340  0.07604340       0.005
   0.07604340  0.07604340  0.07604340       0.005
   0.07815572  0.07815572  0.07181877       0.005
   0.08026803  0.08026803  0.06759413       0.005
   0.08238035  0.08238035  0.06336950       0.005
   0.08449267  0.08449267  0.05914487       0.005
   0.08660498  0.08660498  0.05492023       0.005
   0.08871730  0.08871730  0.05069560       0.005
   0.09082962  0.09082962  0.04647097       0.005
   0.09294193  0.09294193  0.04224633       0.005
   0.09505425  0.09505425  0.03802170       0.005
   0.09716657  0.09716657  0.03379707       0.005
   0.09927888  0.09927888  0.02957243       0.005
   0.10139120  0.10139120  0.02534780       0.005
   0.10350352  0.10350352  0.02112317       0.005
   0.10561583  0.10561583  0.01689853       0.005
   0.10772815  0.10772815  0.01267390       0.005
   0.10984047  0.10984047  0.00844927       0.005
   0.11195278  0.11195278  0.00422463       0.005
   0.11406510  0.11406510  0.00000000       0.005
   0.03802170  0.15208680  0.03802170       0.005
   0.03456518  0.15208680  0.03456518       0.005
   0.03110866  0.15208680  0.03110866       0.005
   0.02765215  0.15208680  0.02765215       0.005
   0.02419563  0.15208680  0.02419563       0.005
   0.02073911  0.15208680  0.02073911       0.005
   0.01728259  0.15208680  0.01728259       0.005
   0.01382607  0.15208680  0.01382607       0.005
   0.01036955  0.15208680  0.01036955       0.005
   0.00691304  0.15208680  0.00691304       0.005
   0.00345652  0.15208680  0.00345652       0.005
   0.00000000  0.15208680  0.00000000       0.005

 k-points in reciprocal lattice and weights: Non SCF run along symmetry lines        
   0.00000000  0.00000000  0.00000000       0.005
   0.01724138 -0.00000000  0.01724138       0.005
   0.03448276 -0.00000000  0.03448276       0.005
   0.05172414 -0.00000000  0.05172414       0.005
   0.06896552 -0.00000000  0.06896552       0.005
   0.08620690 -0.00000000  0.08620690       0.005
   0.10344828 -0.00000000  0.10344828       0.005
   0.12068966 -0.00000000  0.12068966       0.005
   0.13793103 -0.00000000  0.13793103       0.005
   0.15517241 -0.00000000  0.15517241       0.005
   0.17241379 -0.00000000  0.17241379       0.005
   0.18965517 -0.00000000  0.18965517       0.005
   0.20689655 -0.00000000  0.20689655       0.005
   0.22413793 -0.00000000  0.22413793       0.005
   0.24137931 -0.00000000  0.24137931       0.005
   0.25862069 -0.00000000  0.25862069       0.005
   0.27586207 -0.00000000  0.27586207       0.005
   0.29310345 -0.00000000  0.29310345       0.005
   0.31034483 -0.00000000  0.31034483       0.005
   0.32758621 -0.00000000  0.32758621       0.005
   0.34482759 -0.00000000  0.34482759       0.005
   0.36206897 -0.00000000  0.36206897       0.005
   0.37931034 -0.00000000  0.37931034       0.005
   0.39655172 -0.00000000  0.39655172       0.005
   0.41379310 -0.00000000  0.41379310       0.005
   0.43103448 -0.00000000  0.43103448       0.005
   0.44827586 -0.00000000  0.44827586       0.005
   0.46551724 -0.00000000  0.46551724       0.005
   0.48275862 -0.00000000  0.48275862       0.005
   0.50000000 -0.00000000  0.50000000       0.005
   0.50000000 -0.00000000  0.50000000       0.005
   0.50000000  0.01666667  0.51666667       0.005
   0.50000000  0.03333333  0.53333333       0.005
   0.50000000  0.05000000  0.55000000       0.005
   0.50000000  0.06666667  0.56666667       0.005
   0.50000000  0.08333333  0.58333333       0.005
   0.50000000  0.10000000  0.60000000       0.005
   0.50000000  0.11666667  0.61666667       0.005
   0.50000000  0.13333333  0.63333333       0.005
   0.50000000  0.15000000  0.65000000       0.005
   0.50000000  0.16666667  0.66666667       0.005
   0.50000000  0.18333333  0.68333333       0.005
   0.50000000  0.20000000  0.70000000       0.005
   0.50000000  0.21666667  0.71666667       0.005
   0.50000000  0.23333333  0.73333333       0.005
   0.50000000  0.25000000  0.75000000       0.005
   0.50000000  0.25000000  0.75000000       0.005
   0.48863636  0.26136364  0.75000000       0.005
   0.47727273  0.27272727  0.75000000       0.005
   0.46590909  0.28409091  0.75000000       0.005
   0.45454545  0.29545455  0.75000000       0.005
   0.44318182  0.30681818  0.75000000       0.005
   0.43181818  0.31818182  0.75000000       0.005
   0.42045455  0.32954545  0.75000000       0.005
   0.40909091  0.34090909  0.75000000       0.005
   0.39772727  0.35227273  0.75000000       0.005
   0.38636364  0.36363636  0.75000000       0.005
   0.37500000  0.37500000  0.75000000       0.005
   0.37500000  0.37500000  0.75000000       0.005
   0.36290323  0.36290323  0.72580645       0.005
   0.35080645  0.35080645  0.70161290       0.005
   0.33870968  0.33870968  0.67741935       0.005
   0.32661290  0.32661290  0.65322581       0.005
   0.31451613  0.31451613  0.62903226       0.005
   0.30241935  0.30241935  0.60483871       0.005
   0.29032258  0.29032258  0.58064516       0.005
   0.27822581  0.27822581  0.55645161       0.005
   0.26612903  0.26612903  0.53225806       0.005
   0.25403226  0.25403226  0.50806452       0.005
   0.24193548  0.24193548  0.48387097       0.005
   0.22983871  0.22983871  0.45967742       0.005
   0.21774194  0.21774194  0.43548387       0.005
   0.20564516  0.20564516  0.41129032       0.005
   0.19354839  0.19354839  0.38709677       0.005
   0.18145161  0.18145161  0.36290323       0.005
   0.16935484  0.16935484  0.33870968       0.005
   0.15725806  0.15725806  0.31451613       0.005
   0.14516129  0.14516129  0.29032258       0.005
   0.13306452  0.13306452  0.26612903       0.005
   0.12096774  0.12096774  0.24193548       0.005
   0.10887097  0.10887097  0.21774194       0.005
   0.09677419  0.09677419  0.19354839       0.005
   0.08467742  0.08467742  0.16935484       0.005
   0.07258065  0.07258065  0.14516129       0.005
   0.06048387  0.06048387  0.12096774       0.005
   0.04838710  0.04838710  0.09677419       0.005
   0.03629032  0.03629032  0.07258065       0.005
   0.02419355  0.02419355  0.04838710       0.005
   0.01209677  0.01209677  0.02419355       0.005
   0.00000000  0.00000000  0.00000000       0.005
   0.00000000  0.00000000  0.00000000       0.005
   0.02000000  0.02000000  0.02000000       0.005
   0.04000000  0.04000000  0.04000000       0.005
   0.06000000  0.06000000  0.06000000       0.005
   0.08000000  0.08000000  0.08000000       0.005
   0.10000000  0.10000000  0.10000000       0.005
   0.12000000  0.12000000  0.12000000       0.005
   0.14000000  0.14000000  0.14000000       0.005
   0.16000000  0.16000000  0.16000000       0.005
   0.18000000  0.18000000  0.18000000       0.005
   0.20000000  0.20000000  0.20000000       0.005
   0.22000000  0.22000000  0.22000000       0.005
   0.24000000  0.24000000  0.24000000       0.005
   0.26000000  0.26000000  0.26000000       0.005
   0.28000000  0.28000000  0.28000000       0.005
   0.30000000  0.30000000  0.30000000       0.005
   0.32000000  0.32000000  0.32000000       0.005
   0.34000000  0.34000000  0.34000000       0.005
   0.36000000  0.36000000  0.36000000       0.005
   0.38000000  0.38000000  0.38000000       0.005
   0.40000000  0.40000000  0.40000000       0.005
   0.42000000  0.42000000  0.42000000       0.005
   0.44000000  0.44000000  0.44000000       0.005
   0.46000000  0.46000000  0.46000000       0.005
   0.48000000  0.48000000  0.48000000       0.005
   0.50000000  0.50000000  0.50000000       0.005
   0.50000000  0.50000000  0.50000000       0.005
   0.50694444  0.48611111  0.50694444       0.005
   0.51388889  0.47222222  0.51388889       0.005
   0.52083333  0.45833333  0.52083333       0.005
   0.52777778  0.44444444  0.52777778       0.005
   0.53472222  0.43055556  0.53472222       0.005
   0.54166667  0.41666667  0.54166667       0.005
   0.54861111  0.40277778  0.54861111       0.005
   0.55555556  0.38888889  0.55555556       0.005
   0.56250000  0.37500000  0.56250000       0.005
   0.56944444  0.36111111  0.56944444       0.005
   0.57638889  0.34722222  0.57638889       0.005
   0.58333333  0.33333333  0.58333333       0.005
   0.59027778  0.31944444  0.59027778       0.005
   0.59722222  0.30555556  0.59722222       0.005
   0.60416667  0.29166667  0.60416667       0.005
   0.61111111  0.27777778  0.61111111       0.005
   0.61805556  0.26388889  0.61805556       0.005
   0.62500000  0.25000000  0.62500000       0.005
   0.62500000  0.25000000  0.62500000       0.005
   0.61363636  0.25000000  0.63636364       0.005
   0.60227273  0.25000000  0.64772727       0.005
   0.59090909  0.25000000  0.65909091       0.005
   0.57954545  0.25000000  0.67045455       0.005
   0.56818182  0.25000000  0.68181818       0.005
   0.55681818  0.25000000  0.69318182       0.005
   0.54545455  0.25000000  0.70454545       0.005
   0.53409091  0.25000000  0.71590909       0.005
   0.52272727  0.25000000  0.72727273       0.005
   0.51136364  0.25000000  0.73863636       0.005
   0.50000000  0.25000000  0.75000000       0.005
   0.50000000  0.25000000  0.75000000       0.005
   0.50000000  0.26190476  0.73809524       0.005
   0.50000000  0.27380952  0.72619048       0.005
   0.50000000  0.28571429  0.71428571       0.005
   0.50000000  0.29761905  0.70238095       0.005
   0.50000000  0.30952381  0.69047619       0.005
   0.50000000  0.32142857  0.67857143       0.005
   0.50000000  0.33333333  0.66666667       0.005
   0.50000000  0.34523810  0.65476190       0.005
   0.50000000  0.35714286  0.64285714       0.005
   0.50000000  0.36904762  0.63095238       0.005
   0.50000000  0.38095238  0.61904762       0.005
   0.50000000  0.39285714  0.60714286       0.005
   0.50000000  0.40476190  0.59523810       0.005
   0.50000000  0.41666667  0.58333333       0.005
   0.50000000  0.42857143  0.57142857       0.005
   0.50000000  0.44047619  0.55952381       0.005
   0.50000000  0.45238095  0.54761905       0.005
   0.50000000  0.46428571  0.53571429       0.005
   0.50000000  0.47619048  0.52380952       0.005
   0.50000000  0.48809524  0.51190476       0.005
   0.50000000  0.50000000  0.50000000       0.005
   0.50000000  0.50000000  0.50000000       0.005
   0.49305556  0.49305556  0.51388889       0.005
   0.48611111  0.48611111  0.52777778       0.005
   0.47916667  0.47916667  0.54166667       0.005
   0.47222222  0.47222222  0.55555556       0.005
   0.46527778  0.46527778  0.56944444       0.005
   0.45833333  0.45833333  0.58333333       0.005
   0.45138889  0.45138889  0.59722222       0.005
   0.44444444  0.44444444  0.61111111       0.005
   0.43750000  0.43750000  0.62500000       0.005
   0.43055556  0.43055556  0.63888889       0.005
   0.42361111  0.42361111  0.65277778       0.005
   0.41666667  0.41666667  0.66666667       0.005
   0.40972222  0.40972222  0.68055556       0.005
   0.40277778  0.40277778  0.69444444       0.005
   0.39583333  0.39583333  0.70833333       0.005
   0.38888889  0.38888889  0.72222222       0.005
   0.38194444  0.38194444  0.73611111       0.005
   0.37500000  0.37500000  0.75000000       0.005
   0.62500000  0.25000000  0.62500000       0.005
   0.61363636  0.22727273  0.61363636       0.005
   0.60227273  0.20454545  0.60227273       0.005
   0.59090909  0.18181818  0.59090909       0.005
   0.57954545  0.15909091  0.57954545       0.005
   0.56818182  0.13636364  0.56818182       0.005
   0.55681818  0.11363636  0.55681818       0.005
   0.54545455  0.09090909  0.54545455       0.005
   0.53409091  0.06818182  0.53409091       0.005
   0.52272727  0.04545455  0.52272727       0.005
   0.51136364  0.02272727  0.51136364       0.005
   0.50000000 -0.00000000  0.50000000       0.005

 position of ions in fractional coordinates (direct lattice) 
   0.00000000  0.00000000  0.00000000
   0.50000000  0.50000000  0.50000000

 position of ions in cartesian coordinates  (Angst):
   0.00000000  0.00000000  0.00000000
   3.28759630  3.28759630  3.28759630

 Euler angles ALPHA=     0.0000000  BETA=     0.0000000

 transformation matrix from SAXIS to cartesian coordinates
 ---------------------------------------------------------
     1.0000000 m_x    -0.0000000 m_y     0.0000000 m_z
     0.0000000 m_x     1.0000000 m_y     0.0000000 m_z
    -0.0000000 m_x     0.0000000 m_y     1.0000000 m_z

 transformation matrix from cartesian coordinates to SAXIS
 ---------------------------------------------------------
     1.0000000 m_x     0.0000000 m_y    -0.0000000 m_z
    -0.0000000 m_x     1.0000000 m_y     0.0000000 m_z
     0.0000000 m_x     0.0000000 m_y     1.0000000 m_z




--------------------------------------------------------------------------------------------------------


 k-point  1 :   0.0000 0.0000 0.0000  plane waves:    4842
 k-point  2 :   0.0172-0.0000 0.0172  plane waves:    4834
 k-point  3 :   0.0345-0.0000 0.0345  plane waves:    4786
 k-point  4 :   0.0517-0.0000 0.0517  plane waves:    4754
 k-point  5 :   0.0690-0.0000 0.0690  plane waves:    4754
 k-point  6 :   0.0862-0.0000 0.0862  plane waves:    4746
 k-point  7 :   0.1034-0.0000 0.1034  plane waves:    4746
 k-point  8 :   0.1207-0.0000 0.1207  plane waves:    4722
 k-point  9 :   0.1379-0.0000 0.1379  plane waves:    4722
 k-point 10 :   0.1552-0.0000 0.1552  plane waves:    4738
 k-point 11 :   0.1724-0.0000 0.1724  plane waves:    4746
 k-point 12 :   0.1897-0.0000 0.1897  plane waves:    4738
 k-point 13 :   0.2069-0.0000 0.2069  plane waves:    4754
 k-point 14 :   0.2241-0.0000 0.2241  plane waves:    4746
 k-point 15 :   0.2414-0.0000 0.2414  plane waves:    4762
 k-point 16 :   0.2586-0.0000 0.2586  plane waves:    4778
 k-point 17 :   0.2759-0.0000 0.2759  plane waves:    4778
 k-point 18 :   0.2931-0.0000 0.2931  plane waves:    4754
 k-point 19 :   0.3103-0.0000 0.3103  plane waves:    4754
 k-point 20 :   0.3276-0.0000 0.3276  plane waves:    4754
 k-point 21 :   0.3448-0.0000 0.3448  plane waves:    4754
 k-point 22 :   0.3621-0.0000 0.3621  plane waves:    4754
 k-point 23 :   0.3793-0.0000 0.3793  plane waves:    4754
 k-point 24 :   0.3966-0.0000 0.3966  plane waves:    4738
 k-point 25 :   0.4138-0.0000 0.4138  plane waves:    4730
 k-point 26 :   0.4310-0.0000 0.4310  plane waves:    4746
 k-point 27 :   0.4483-0.0000 0.4483  plane waves:    4748
 k-point 28 :   0.4655-0.0000 0.4655  plane waves:    4732
 k-point 29 :   0.4828-0.0000 0.4828  plane waves:    4716
 k-point 30 :   0.5000-0.0000 0.5000  plane waves:    4692
 k-point 31 :   0.5000-0.0000 0.5000  plane waves:    4692
 k-point 32 :   0.5000 0.0167 0.5167  plane waves:    4708
 k-point 33 :   0.5000 0.0333 0.5333  plane waves:    4732
 k-point 34 :   0.5000 0.0500 0.5500  plane waves:    4744
 k-point 35 :   0.5000 0.0667 0.5667  plane waves:    4756
 k-point 36 :   0.5000 0.0833 0.5833  plane waves:    4756
 k-point 37 :   0.5000 0.1000 0.6000  plane waves:    4752
 k-point 38 :   0.5000 0.1167 0.6167  plane waves:    4756
 k-point 39 :   0.5000 0.1333 0.6333  plane waves:    4740
 k-point 40 :   0.5000 0.1500 0.6500  plane waves:    4740
 k-point 41 :   0.5000 0.1667 0.6667  plane waves:    4748
 k-point 42 :   0.5000 0.1833 0.6833  plane waves:    4724
 k-point 43 :   0.5000 0.2000 0.7000  plane waves:    4732
 k-point 44 :   0.5000 0.2167 0.7167  plane waves:    4724
 k-point 45 :   0.5000 0.2333 0.7333  plane waves:    4712
 k-point 46 :   0.5000 0.2500 0.7500  plane waves:    4704
 k-point 47 :   0.5000 0.2500 0.7500  plane waves:    4704
 k-point 48 :   0.4886 0.2614 0.7500  plane waves:    4708
 k-point 49 :   0.4773 0.2727 0.7500  plane waves:    4720
 k-point 50 :   0.4659 0.2841 0.7500  plane waves:    4722
 k-point 51 :   0.4545 0.2955 0.7500  plane waves:    4734
 k-point 52 :   0.4432 0.3068 0.7500  plane waves:    4730
 k-point 53 :   0.4318 0.3182 0.7500  plane waves:    4732
 k-point 54 :   0.4205 0.3295 0.7500  plane waves:    4720
 k-point 55 :   0.4091 0.3409 0.7500  plane waves:    4716
 k-point 56 :   0.3977 0.3523 0.7500  plane waves:    4712
 k-point 57 :   0.3864 0.3636 0.7500  plane waves:    4716
 k-point 58 :   0.3750 0.3750 0.7500  plane waves:    4728
 k-point 59 :   0.3750 0.3750 0.7500  plane waves:    4728
 k-point 60 :   0.3629 0.3629 0.7258  plane waves:    4720
 k-point 61 :   0.3508 0.3508 0.7016  plane waves:    4702
 k-point 62 :   0.3387 0.3387 0.6774  plane waves:    4718
 k-point 63 :   0.3266 0.3266 0.6532  plane waves:    4718
 k-point 64 :   0.3145 0.3145 0.6290  plane waves:    4706
 k-point 65 :   0.3024 0.3024 0.6048  plane waves:    4706
 k-point 66 :   0.2903 0.2903 0.5806  plane waves:    4722
 k-point 67 :   0.2782 0.2782 0.5565  plane waves:    4722
 k-point 68 :   0.2661 0.2661 0.5323  plane waves:    4722
 k-point 69 :   0.2540 0.2540 0.5081  plane waves:    4738
 k-point 70 :   0.2419 0.2419 0.4839  plane waves:    4762
 k-point 71 :   0.2298 0.2298 0.4597  plane waves:    4762
 k-point 72 :   0.2177 0.2177 0.4355  plane waves:    4770
 k-point 73 :   0.2056 0.2056 0.4113  plane waves:    4750
 k-point 74 :   0.1935 0.1935 0.3871  plane waves:    4766
 k-point 75 :   0.1815 0.1815 0.3629  plane waves:    4770
 k-point 76 :   0.1694 0.1694 0.3387  plane waves:    4778
 k-point 77 :   0.1573 0.1573 0.3145  plane waves:    4742
 k-point 78 :   0.1452 0.1452 0.2903  plane waves:    4758
 k-point 79 :   0.1331 0.1331 0.2661  plane waves:    4750
 k-point 80 :   0.1210 0.1210 0.2419  plane waves:    4766
 k-point 81 :   0.1089 0.1089 0.2177  plane waves:    4746
 k-point 82 :   0.0968 0.0968 0.1935  plane waves:    4718
 k-point 83 :   0.0847 0.0847 0.1694  plane waves:    4726
 k-point 84 :   0.0726 0.0726 0.1452  plane waves:    4726
 k-point 85 :   0.0605 0.0605 0.1210  plane waves:    4734
 k-point 86 :   0.0484 0.0484 0.0968  plane waves:    4750
 k-point 87 :   0.0363 0.0363 0.0726  plane waves:    4758
 k-point 88 :   0.0242 0.0242 0.0484  plane waves:    4810
 k-point 89 :   0.0121 0.0121 0.0242  plane waves:    4830
 k-point 90 :   0.0000 0.0000 0.0000  plane waves:    4842
 k-point 91 :   0.0000 0.0000 0.0000  plane waves:    4842
 k-point 92 :   0.0200 0.0200 0.0200  plane waves:    4836
 k-point 93 :   0.0400 0.0400 0.0400  plane waves:    4800
 k-point 94 :   0.0600 0.0600 0.0600  plane waves:    4764
 k-point 95 :   0.0800 0.0800 0.0800  plane waves:    4746
 k-point 96 :   0.1000 0.1000 0.1000  plane waves:    4752
 k-point 97 :   0.1200 0.1200 0.1200  plane waves:    4734
 k-point 98 :   0.1400 0.1400 0.1400  plane waves:    4710
 k-point 99 :   0.1600 0.1600 0.1600  plane waves:    4740
 k-point ** :   0.1800 0.1800 0.1800  plane waves:    4752
 k-point ** :   0.2000 0.2000 0.2000  plane waves:    4758
 k-point ** :   0.2200 0.2200 0.2200  plane waves:    4746
 k-point ** :   0.2400 0.2400 0.2400  plane waves:    4746
 k-point ** :   0.2600 0.2600 0.2600  plane waves:    4740
 k-point ** :   0.2800 0.2800 0.2800  plane waves:    4746
 k-point ** :   0.3000 0.3000 0.3000  plane waves:    4746
 k-point ** :   0.3200 0.3200 0.3200  plane waves:    4758
 k-point ** :   0.3400 0.3400 0.3400  plane waves:    4764
 k-point ** :   0.3600 0.3600 0.3600  plane waves:    4764
 k-point ** :   0.3800 0.3800 0.3800  plane waves:    4764
 k-point ** :   0.4000 0.4000 0.4000  plane waves:    4776
 k-point ** :   0.4200 0.4200 0.4200  plane waves:    4766
 k-point ** :   0.4400 0.4400 0.4400  plane waves:    4760
 k-point ** :   0.4600 0.4600 0.4600  plane waves:    4748
 k-point ** :   0.4800 0.4800 0.4800  plane waves:    4736
 k-point ** :   0.5000 0.5000 0.5000  plane waves:    4724
 k-point ** :   0.5000 0.5000 0.5000  plane waves:    4724
 k-point ** :   0.5069 0.4861 0.5069  plane waves:    4738
 k-point ** :   0.5139 0.4722 0.5139  plane waves:    4744
 k-point ** :   0.5208 0.4583 0.5208  plane waves:    4748
 k-point ** :   0.5278 0.4444 0.5278  plane waves:    4752
 k-point ** :   0.5347 0.4306 0.5347  plane waves:    4740
 k-point ** :   0.5417 0.4167 0.5417  plane waves:    4728
 k-point ** :   0.5486 0.4028 0.5486  plane waves:    4738
 k-point ** :   0.5556 0.3889 0.5556  plane waves:    4734
 k-point ** :   0.5625 0.3750 0.5625  plane waves:    4738
 k-point ** :   0.5694 0.3611 0.5694  plane waves:    4744
 k-point ** :   0.5764 0.3472 0.5764  plane waves:    4748
 k-point ** :   0.5833 0.3333 0.5833  plane waves:    4740
 k-point ** :   0.5903 0.3194 0.5903  plane waves:    4724
 k-point ** :   0.5972 0.3056 0.5972  plane waves:    4730
 k-point ** :   0.6042 0.2917 0.6042  plane waves:    4726
 k-point ** :   0.6111 0.2778 0.6111  plane waves:    4724
 k-point ** :   0.6181 0.2639 0.6181  plane waves:    4708
 k-point ** :   0.6250 0.2500 0.6250  plane waves:    4728
 k-point ** :   0.6250 0.2500 0.6250  plane waves:    4728
 k-point ** :   0.6136 0.2500 0.6364  plane waves:    4716
 k-point ** :   0.6023 0.2500 0.6477  plane waves:    4712
 k-point ** :   0.5909 0.2500 0.6591  plane waves:    4716
 k-point ** :   0.5795 0.2500 0.6705  plane waves:    4720
 k-point ** :   0.5682 0.2500 0.6818  plane waves:    4732
 k-point ** :   0.5568 0.2500 0.6932  plane waves:    4730
 k-point ** :   0.5455 0.2500 0.7045  plane waves:    4734
 k-point ** :   0.5341 0.2500 0.7159  plane waves:    4722
 k-point ** :   0.5227 0.2500 0.7273  plane waves:    4720
 k-point ** :   0.5114 0.2500 0.7386  plane waves:    4708
 k-point ** :   0.5000 0.2500 0.7500  plane waves:    4704
 k-point ** :   0.5000 0.2500 0.7500  plane waves:    4704
 k-point ** :   0.5000 0.2619 0.7381  plane waves:    4704
 k-point ** :   0.5000 0.2738 0.7262  plane waves:    4728
 k-point ** :   0.5000 0.2857 0.7143  plane waves:    4720
 k-point ** :   0.5000 0.2976 0.7024  plane waves:    4720
 k-point ** :   0.5000 0.3095 0.6905  plane waves:    4728
 k-point ** :   0.5000 0.3214 0.6786  plane waves:    4748
 k-point ** :   0.5000 0.3333 0.6667  plane waves:    4752
 k-point ** :   0.5000 0.3452 0.6548  plane waves:    4744
 k-point ** :   0.5000 0.3571 0.6429  plane waves:    4752
 k-point ** :   0.5000 0.3690 0.6310  plane waves:    4756
 k-point ** :   0.5000 0.3810 0.6190  plane waves:    4756
 k-point ** :   0.5000 0.3929 0.6071  plane waves:    4752
 k-point ** :   0.5000 0.4048 0.5952  plane waves:    4744
 k-point ** :   0.5000 0.4167 0.5833  plane waves:    4740
 k-point ** :   0.5000 0.4286 0.5714  plane waves:    4752
 k-point ** :   0.5000 0.4405 0.5595  plane waves:    4752
 k-point ** :   0.5000 0.4524 0.5476  plane waves:    4752
 k-point ** :   0.5000 0.4643 0.5357  plane waves:    4736
 k-point ** :   0.5000 0.4762 0.5238  plane waves:    4748
 k-point ** :   0.5000 0.4881 0.5119  plane waves:    4740
 k-point ** :   0.5000 0.5000 0.5000  plane waves:    4724
 k-point ** :   0.5000 0.5000 0.5000  plane waves:    4724
 k-point ** :   0.4931 0.4931 0.5139  plane waves:    4738
 k-point ** :   0.4861 0.4861 0.5278  plane waves:    4744
 k-point ** :   0.4792 0.4792 0.5417  plane waves:    4748
 k-point ** :   0.4722 0.4722 0.5556  plane waves:    4752
 k-point ** :   0.4653 0.4653 0.5694  plane waves:    4740
 k-point ** :   0.4583 0.4583 0.5833  plane waves:    4728
 k-point ** :   0.4514 0.4514 0.5972  plane waves:    4738
 k-point ** :   0.4444 0.4444 0.6111  plane waves:    4734
 k-point ** :   0.4375 0.4375 0.6250  plane waves:    4738
 k-point ** :   0.4306 0.4306 0.6389  plane waves:    4744
 k-point ** :   0.4236 0.4236 0.6528  plane waves:    4748
 k-point ** :   0.4167 0.4167 0.6667  plane waves:    4740
 k-point ** :   0.4097 0.4097 0.6806  plane waves:    4724
 k-point ** :   0.4028 0.4028 0.6944  plane waves:    4730
 k-point ** :   0.3958 0.3958 0.7083  plane waves:    4726
 k-point ** :   0.3889 0.3889 0.7222  plane waves:    4724
 k-point ** :   0.3819 0.3819 0.7361  plane waves:    4708
 k-point ** :   0.3750 0.3750 0.7500  plane waves:    4728
 k-point ** :   0.6250 0.2500 0.6250  plane waves:    4728
 k-point ** :   0.6136 0.2273 0.6136  plane waves:    4720
 k-point ** :   0.6023 0.2045 0.6023  plane waves:    4744
 k-point ** :   0.5909 0.1818 0.5909  plane waves:    4752
 k-point ** :   0.5795 0.1591 0.5795  plane waves:    4752
 k-point ** :   0.5682 0.1364 0.5682  plane waves:    4728
 k-point ** :   0.5568 0.1136 0.5568  plane waves:    4728
 k-point ** :   0.5455 0.0909 0.5455  plane waves:    4740
 k-point ** :   0.5341 0.0682 0.5341  plane waves:    4752
 k-point ** :   0.5227 0.0455 0.5227  plane waves:    4732
 k-point ** :   0.5114 0.0227 0.5114  plane waves:    4708
 k-point ** :   0.5000-0.0000 0.5000  plane waves:    4692

 maximum and minimum number of plane-waves per node :      2422     2336

 maximum number of plane-waves:      4842
 maximum index in each direction: 
   IXMAX=    9   IYMAX=    9   IZMAX=    9
   IXMIN=   -9   IYMIN=   -9   IZMIN=  -10


 parallel 3D FFT for wavefunctions:
    minimum data exchange during FFTs selected (reduces bandwidth)
 parallel 3D FFT for charge:
    minimum data exchange during FFTs selected (reduces bandwidth)


 total amount of memory used by VASP MPI-rank0   304634. kBytes
=======================================================================

   base      :      30000. kBytes
   nonl-proj :      69849. kBytes
   fftplans  :      19688. kBytes
   grid      :      19456. kBytes
   one-center:         62. kBytes
   wavefun   :     165579. kBytes

     INWAV:  cpu time    0.0001: real time    0.0001
 initial charge density was supplied:
 number of electron      20.0000002 magnetization       0.0000028      0.0000028      0.0000028
 keeping initial charge density in first step


--------------------------------------------------------------------------------------------------------


 Maximum index for augmentation-charges        50867 (set IRDMAX)


--------------------------------------------------------------------------------------------------------


 First call to EWALD:  gamma=   0.428
 Maximum number of real-space cells 3x 3x 3
 Maximum number of reciprocal cells 3x 3x 3

    FEWALD:  cpu time    0.0044: real time    0.0055


--------------------------------------- Iteration      1(   1)  ---------------------------------------


    POTLOK:  cpu time    2.9950: real time    4.1787
    SETDIJ:  cpu time    1.8500: real time    1.8504
    TRIAL :  cpu time  257.1782: real time  326.5204
    CORREC:  cpu time    0.0023: real time    0.0023
    --------------------------------------------
      LOOP:  cpu time  262.0863: real time  332.6129

 eigenvalue-minimisations  : 11200
 total energy-change (2. order) : 0.1986248E+03  (-0.9943052E+03)
 number of electron      20.0000002 magnetization       0.0000028      0.0000028      0.0000028
 augmentation part       20.0000002 magnetization       0.0000028      0.0000028      0.0000028

 Free energy of the ion-electron system (eV)
  ---------------------------------------------------
  alpha Z        PSCENC =        34.19906358
  Ewald energy   TEWEN  =     -1365.21656973
  -Hartree energ DENC   =      -514.10013634
  -exchange      EXHF   =         0.00000000
  -V(xc)+E(xc)   XCENC  =         9.70509675
  PAW double counting   =      1876.14714542    -1820.84473102
  entropy T*S    EENTRO =        -0.00007177
  eigenvalues    EBANDS =        93.84621475
  atomic energy  EATOM  =      1884.88874340
  ---------------------------------------------------
  free energy    TOTEN  =       198.62475504 eV

  energy without entropy =      198.62482680  energy(sigma->0) =      198.62479092


--------------------------------------------------------------------------------------------------------




--------------------------------------- Iteration      1(   2)  ---------------------------------------


    TRIAL :  cpu time  277.6287: real time  316.4184
    CORREC:  cpu time    0.0036: real time    0.1407
    --------------------------------------------
      LOOP:  cpu time  277.7849: real time  316.7117

 eigenvalue-minimisations  : 11320
 total energy-change (2. order) :-0.1865596E+03  (-0.1812524E+03)
 number of electron      20.0000002 magnetization       0.0000028      0.0000028      0.0000028
 augmentation part       20.0000002 magnetization       0.0000028      0.0000028      0.0000028

 Free energy of the ion-electron system (eV)
  ---------------------------------------------------
  alpha Z        PSCENC =        34.19906358
  Ewald energy   TEWEN  =     -1365.21656973
  -Hartree energ DENC   =      -514.10013634
  -exchange      EXHF   =         0.00000000
  -V(xc)+E(xc)   XCENC  =         9.70509675
  PAW double counting   =      1876.14714542    -1820.84473102
  entropy T*S    EENTRO =        -0.00004239
  eigenvalues    EBANDS =       -92.71341895
  atomic energy  EATOM  =      1884.88874340
  ---------------------------------------------------
  free energy    TOTEN  =        12.06515072 eV

  energy without entropy =       12.06519311  energy(sigma->0) =       12.06517191


--------------------------------------------------------------------------------------------------------




--------------------------------------- Iteration      1(   3)  ---------------------------------------


    TRIAL :  cpu time  260.1262: real time  326.9546
    CORREC:  cpu time    0.0510: real time    0.0511
    --------------------------------------------
      LOOP:  cpu time  260.1793: real time  327.0079

 eigenvalue-minimisations  : 14616
 total energy-change (2. order) :-0.1912563E+02  (-0.1862281E+02)
 number of electron      20.0000002 magnetization       0.0000028      0.0000028      0.0000028
 augmentation part       20.0000002 magnetization       0.0000028      0.0000028      0.0000028

 Free energy of the ion-electron system (eV)
  ---------------------------------------------------
  alpha Z        PSCENC =        34.19906358
  Ewald energy   TEWEN  =     -1365.21656973
  -Hartree energ DENC   =      -514.10013634
  -exchange      EXHF   =         0.00000000
  -V(xc)+E(xc)   XCENC  =         9.70509675
  PAW double counting   =      1876.14714542    -1820.84473102
  entropy T*S    EENTRO =        -0.00005916
  eigenvalues    EBANDS =      -111.83903073
  atomic energy  EATOM  =      1884.88874340
  ---------------------------------------------------
  free energy    TOTEN  =        -7.06047784 eV

  energy without entropy =       -7.06041868  energy(sigma->0) =       -7.06044826


--------------------------------------------------------------------------------------------------------




--------------------------------------- Iteration      1(   4)  ---------------------------------------


    TRIAL :  cpu time   78.6140: real time   88.0282
    CORREC:  cpu time    0.0008: real time    0.0008
    --------------------------------------------
      LOOP:  cpu time   78.6603: real time   88.0745

 eigenvalue-minimisations  : 13940
 total energy-change (2. order) :-0.8468581E+00  (-0.8414095E+00)
 number of electron      20.0000002 magnetization       0.0000028      0.0000028      0.0000028
 augmentation part       20.0000002 magnetization       0.0000028      0.0000028      0.0000028

 Free energy of the ion-electron system (eV)
  ---------------------------------------------------
  alpha Z        PSCENC =        34.19906358
  Ewald energy   TEWEN  =     -1365.21656973
  -Hartree energ DENC   =      -514.10013634
  -exchange      EXHF   =         0.00000000
  -V(xc)+E(xc)   XCENC  =         9.70509675
  PAW double counting   =      1876.14714542    -1820.84473102
  entropy T*S    EENTRO =        -0.00000000
  eigenvalues    EBANDS =      -112.68594798
  atomic energy  EATOM  =      1884.88874340
  ---------------------------------------------------
  free energy    TOTEN  =        -7.90733592 eV

  energy without entropy =       -7.90733592  energy(sigma->0) =       -7.90733592


--------------------------------------------------------------------------------------------------------




--------------------------------------- Iteration      1(   5)  ---------------------------------------


    TRIAL :  cpu time  150.6964: real time  172.6363
    CORREC:  cpu time    0.0256: real time    0.0257
    --------------------------------------------
      LOOP:  cpu time  150.7221: real time  172.6623

 eigenvalue-minimisations  : 15960
 total energy-change (2. order) :-0.3796734E-01  (-0.3795934E-01)
 number of electron      20.0000002 magnetization       0.0000028      0.0000028      0.0000028
 augmentation part       20.0000002 magnetization       0.0000028      0.0000028      0.0000028

 Free energy of the ion-electron system (eV)
  ---------------------------------------------------
  alpha Z        PSCENC =        34.19906358
  Ewald energy   TEWEN  =     -1365.21656973
  -Hartree energ DENC   =      -514.10013634
  -exchange      EXHF   =         0.00000000
  -V(xc)+E(xc)   XCENC  =         9.70509675
  PAW double counting   =      1876.14714542    -1820.84473102
  entropy T*S    EENTRO =        -0.00000000
  eigenvalues    EBANDS =      -112.72391532
  atomic energy  EATOM  =      1884.88874340
  ---------------------------------------------------
  free energy    TOTEN  =        -7.94530326 eV

  energy without entropy =       -7.94530326  energy(sigma->0) =       -7.94530326


--------------------------------------------------------------------------------------------------------




--------------------------------------- Iteration      1(   6)  ---------------------------------------


    TRIAL :  cpu time  228.1244: real time  399.7898
    CORREC:  cpu time   42.1295: real time   73.2826
    --------------------------------------------
      LOOP:  cpu time  270.2746: real time  473.0932

 eigenvalue-minimisations  :     0
 total energy-change (2. order) :-0.8185452E-11  (-0.5032142E-03)
 number of electron      20.0000002 magnetization       0.0000028      0.0000028      0.0000028
 augmentation part       20.0000002 magnetization       0.0000028      0.0000028      0.0000028

 Free energy of the ion-electron system (eV)
  ---------------------------------------------------
  alpha Z        PSCENC =        34.19906358
  Ewald energy   TEWEN  =     -1365.21656973
  -Hartree energ DENC   =      -514.10013634
  -exchange      EXHF   =         0.00000000
  -V(xc)+E(xc)   XCENC  =         9.70509675
  PAW double counting   =      1876.14714542    -1820.84473102
  entropy T*S    EENTRO =        -0.00000000
  eigenvalues    EBANDS =      -112.72391532
  atomic energy  EATOM  =      1884.88874340
  ---------------------------------------------------
  free energy    TOTEN  =        -7.94530326 eV

  energy without entropy =       -7.94530326  energy(sigma->0) =       -7.94530326


--------------------------------------------------------------------------------------------------------




--------------------------------------- Iteration      1(   7)  ---------------------------------------


    TRIAL :  cpu time  281.9160: real time  487.7382
    CORREC:  cpu time   38.5991: real time   70.0480
    --------------------------------------------
      LOOP:  cpu time  320.5883: real time  557.8594

 eigenvalue-minimisations  :     0
 total energy-change (2. order) :-0.5032141E-03  (-0.1986789E-03)
 number of electron      20.0000002 magnetization       0.0000028      0.0000028      0.0000028
 augmentation part       20.0000002 magnetization       0.0000028      0.0000028      0.0000028

 Free energy of the ion-electron system (eV)
  ---------------------------------------------------
  alpha Z        PSCENC =        34.19906358
  Ewald energy   TEWEN  =     -1365.21656973
  -Hartree energ DENC   =      -514.10013634
  -exchange      EXHF   =         0.00000000
  -V(xc)+E(xc)   XCENC  =         9.70509675
  PAW double counting   =      1876.14714542    -1820.84473102
  entropy T*S    EENTRO =        -0.00000000
  eigenvalues    EBANDS =      -112.72441853
  atomic energy  EATOM  =      1884.88874340
  ---------------------------------------------------
  free energy    TOTEN  =        -7.94580648 eV

  energy without entropy =       -7.94580648  energy(sigma->0) =       -7.94580648


--------------------------------------------------------------------------------------------------------




--------------------------------------- Iteration      1(   8)  ---------------------------------------


    TRIAL :  cpu time   39.5014: real time   46.1380
    CORREC:  cpu time    3.5061: real time    3.8456
    --------------------------------------------
      LOOP:  cpu time   43.0210: real time   49.9972

 eigenvalue-minimisations  :     0
 total energy-change (2. order) :-0.1986759E-03  (-0.6657601E-04)
 number of electron      20.0000002 magnetization       0.0000028      0.0000028      0.0000028
 augmentation part       20.0000002 magnetization       0.0000028      0.0000028      0.0000028

 Free energy of the ion-electron system (eV)
  ---------------------------------------------------
  alpha Z        PSCENC =        34.19906358
  Ewald energy   TEWEN  =     -1365.21656973
  -Hartree energ DENC   =      -514.10013634
  -exchange      EXHF   =         0.00000000
  -V(xc)+E(xc)   XCENC  =         9.70509675
  PAW double counting   =      1876.14714542    -1820.84473102
  entropy T*S    EENTRO =        -0.00000000
  eigenvalues    EBANDS =      -112.72461721
  atomic energy  EATOM  =      1884.88874340
  ---------------------------------------------------
  free energy    TOTEN  =        -7.94600515 eV

  energy without entropy =       -7.94600515  energy(sigma->0) =       -7.94600515


--------------------------------------------------------------------------------------------------------




--------------------------------------- Iteration      1(   9)  ---------------------------------------


    TRIAL :  cpu time   22.6392: real time   28.1964
    CORREC:  cpu time    4.0624: real time    4.5911
    --------------------------------------------
      LOOP:  cpu time   26.7019: real time   32.7878

 eigenvalue-minimisations  :     0
 total energy-change (2. order) :-0.6657309E-04  (-0.2127544E-04)
 number of electron      20.0000002 magnetization       0.0000028      0.0000028      0.0000028
 augmentation part       20.0000002 magnetization       0.0000028      0.0000028      0.0000028

 Free energy of the ion-electron system (eV)
  ---------------------------------------------------
  alpha Z        PSCENC =        34.19906358
  Ewald energy   TEWEN  =     -1365.21656973
  -Hartree energ DENC   =      -514.10013634
  -exchange      EXHF   =         0.00000000
  -V(xc)+E(xc)   XCENC  =         9.70509675
  PAW double counting   =      1876.14714542    -1820.84473102
  entropy T*S    EENTRO =        -0.00000000
  eigenvalues    EBANDS =      -112.72468378
  atomic energy  EATOM  =      1884.88874340
  ---------------------------------------------------
  free energy    TOTEN  =        -7.94607173 eV

  energy without entropy =       -7.94607173  energy(sigma->0) =       -7.94607173


--------------------------------------------------------------------------------------------------------




--------------------------------------- Iteration      1(  10)  ---------------------------------------


    TRIAL :  cpu time   29.0385: real time   34.5950
    CORREC:  cpu time    3.9926: real time    5.0418
    --------------------------------------------
      LOOP:  cpu time   33.0314: real time   39.6372

 eigenvalue-minimisations  :     0
 total energy-change (2. order) :-0.2127479E-04  (-0.4538873E-05)
 number of electron      20.0000002 magnetization       0.0000028      0.0000028      0.0000028
 augmentation part       20.0000002 magnetization       0.0000028      0.0000028      0.0000028

 Free energy of the ion-electron system (eV)
  ---------------------------------------------------
  alpha Z        PSCENC =        34.19906358
  Ewald energy   TEWEN  =     -1365.21656973
  -Hartree energ DENC   =      -514.10013634
  -exchange      EXHF   =         0.00000000
  -V(xc)+E(xc)   XCENC  =         9.70509675
  PAW double counting   =      1876.14714542    -1820.84473102
  entropy T*S    EENTRO =        -0.00000000
  eigenvalues    EBANDS =      -112.72470506
  atomic energy  EATOM  =      1884.88874340
  ---------------------------------------------------
  free energy    TOTEN  =        -7.94609300 eV

  energy without entropy =       -7.94609300  energy(sigma->0) =       -7.94609300


--------------------------------------------------------------------------------------------------------




--------------------------------------- Iteration      1(  11)  ---------------------------------------


    TRIAL :  cpu time   27.4580: real time   29.7511
    CORREC:  cpu time    4.0197: real time    5.6075
    --------------------------------------------
      LOOP:  cpu time   31.4780: real time   35.3589

 eigenvalue-minimisations  :     0
 total energy-change (2. order) :-0.4538832E-05  (-0.1195170E-05)
 number of electron      20.0000002 magnetization       0.0000028      0.0000028      0.0000028
 augmentation part       20.0000002 magnetization       0.0000028      0.0000028      0.0000028

 Free energy of the ion-electron system (eV)
  ---------------------------------------------------
  alpha Z        PSCENC =        34.19906358
  Ewald energy   TEWEN  =     -1365.21656973
  -Hartree energ DENC   =      -514.10013634
  -exchange      EXHF   =         0.00000000
  -V(xc)+E(xc)   XCENC  =         9.70509675
  PAW double counting   =      1876.14714542    -1820.84473102
  entropy T*S    EENTRO =        -0.00000000
  eigenvalues    EBANDS =      -112.72470960
  atomic energy  EATOM  =      1884.88874340
  ---------------------------------------------------
  free energy    TOTEN  =        -7.94609754 eV

  energy without entropy =       -7.94609754  energy(sigma->0) =       -7.94609754


--------------------------------------------------------------------------------------------------------




--------------------------------------- Iteration      1(  12)  ---------------------------------------


    TRIAL :  cpu time   35.4853: real time   39.0094
    CORREC:  cpu time    5.8763: real time    6.5621
    --------------------------------------------
      LOOP:  cpu time   41.3618: real time   45.5717

 eigenvalue-minimisations  :     0
 total energy-change (2. order) :-0.1195172E-05  (-0.3415933E-06)
 number of electron      20.0000002 magnetization       0.0000028      0.0000028      0.0000028
 augmentation part       20.0000002 magnetization       0.0000028      0.0000028      0.0000028

 Free energy of the ion-electron system (eV)
  ---------------------------------------------------
  alpha Z        PSCENC =        34.19906358
  Ewald energy   TEWEN  =     -1365.21656973
  -Hartree energ DENC   =      -514.10013634
  -exchange      EXHF   =         0.00000000
  -V(xc)+E(xc)   XCENC  =         9.70509675
  PAW double counting   =      1876.14714542    -1820.84473102
  entropy T*S    EENTRO =        -0.00000000
  eigenvalues    EBANDS =      -112.72471079
  atomic energy  EATOM  =      1884.88874340
  ---------------------------------------------------
  free energy    TOTEN  =        -7.94609873 eV

  energy without entropy =       -7.94609873  energy(sigma->0) =       -7.94609873


--------------------------------------------------------------------------------------------------------




--------------------------------------- Iteration      1(  13)  ---------------------------------------


    TRIAL :  cpu time   75.5748: real time   86.9692
    CORREC:  cpu time    8.2568: real time    8.7463
    --------------------------------------------
      LOOP:  cpu time   83.8319: real time   95.7158

 eigenvalue-minimisations  :     0
 total energy-change (2. order) :-0.3415926E-06  (-0.7881995E-07)
 number of electron      20.0000002 magnetization       0.0000028      0.0000028      0.0000028
 augmentation part       20.0000002 magnetization       0.0000028      0.0000028      0.0000028

 Free energy of the ion-electron system (eV)
  ---------------------------------------------------
  alpha Z        PSCENC =        34.19906358
  Ewald energy   TEWEN  =     -1365.21656973
  -Hartree energ DENC   =      -514.10013634
  -exchange      EXHF   =         0.00000000
  -V(xc)+E(xc)   XCENC  =         9.70509675
  PAW double counting   =      1876.14714542    -1820.84473102
  entropy T*S    EENTRO =        -0.00000000
  eigenvalues    EBANDS =      -112.72471113
  atomic energy  EATOM  =      1884.88874340
  ---------------------------------------------------
  free energy    TOTEN  =        -7.94609908 eV

  energy without entropy =       -7.94609908  energy(sigma->0) =       -7.94609908


--------------------------------------------------------------------------------------------------------




--------------------------------------- Iteration      1(  14)  ---------------------------------------


    TRIAL :  cpu time   38.9706: real time   42.8081
    CORREC:  cpu time    4.8324: real time    5.5620
    EDDIAG:  cpu time    9.5937: real time   11.6981
    --------------------------------------------
      LOOP:  cpu time   53.5940: real time   60.2655

 eigenvalue-minimisations  :     0
 total energy-change (2. order) :-0.7883204E-07  (-0.2010761E-07)
 number of electron      20.0000002 magnetization       0.0000028      0.0000028      0.0000028
 augmentation part       20.0000002 magnetization       0.0000028      0.0000028      0.0000028

 Free energy of the ion-electron system (eV)
  ---------------------------------------------------
  alpha Z        PSCENC =        34.19906358
  Ewald energy   TEWEN  =     -1365.21656973
  -Hartree energ DENC   =      -514.10013634
  -exchange      EXHF   =         0.00000000
  -V(xc)+E(xc)   XCENC  =         9.70509675
  PAW double counting   =      1876.14714542    -1820.84473102
  entropy T*S    EENTRO =        -0.00000000
  eigenvalues    EBANDS =      -112.72471121
  atomic energy  EATOM  =      1884.88874340
  ---------------------------------------------------
  free energy    TOTEN  =        -7.94609915 eV

  energy without entropy =       -7.94609915  energy(sigma->0) =       -7.94609915


--------------------------------------------------------------------------------------------------------


  average scaling for gradient   0.9466


 average (electrostatic) potential at core
  the test charge radii are     1.1897  1.1541
  (the norm of the test charge is              1.0000)
       1 -88.7503       2 -92.1082



 E-fermi :   5.1105     XC(G=0):  -9.0601     alpha+bet :-10.2707


 k-point     1 :       0.0000    0.0000    0.0000
  band No.  band energies     occupation 
      1     -13.0996      1.00000
      2     -13.0996      1.00000
      3     -13.0996      1.00000
      4     -13.0996      1.00000
      5     -10.5437      1.00000
      6     -10.5437      1.00000
      7     -10.5437      1.00000
      8     -10.5437      1.00000
      9     -10.5371      1.00000
     10     -10.5371      1.00000
     11      -6.6444      1.00000
     12      -6.6444      1.00000
     13      -0.7179      1.00000
     14      -0.7179      1.00000
     15       3.0747      1.00000
     16       3.0747      1.00000
     17       4.1096      1.00000
     18       4.1096      1.00000
     19       4.1096      1.00000
     20       4.1096      1.00000
     21       7.6465      0.00000
     22       7.6465      0.00000
     23       9.5941      0.00000
     24       9.5942      0.00000
     25       9.5942      0.00000
     26       9.5945      0.00000
     27      10.8509      0.00000
     28      10.8613      0.00000

 k-point     2 :       0.0172   -0.0000    0.0172
  band No.  band energies     occupation 
      1     -13.0996      1.00000
      2     -13.0996      1.00000
      3     -13.0996      1.00000
      4     -13.0996      1.00000
      5     -10.5437      1.00000
      6     -10.5437      1.00000
      7     -10.5436      1.00000
      8     -10.5436      1.00000
      9     -10.5370      1.00000
     10     -10.5370      1.00000
     11      -6.6413      1.00000
     12      -6.6413      1.00000
     13      -0.7281      1.00000
     14      -0.7280      1.00000
     15       3.0778      1.00000
     16       3.0778      1.00000
     17       4.1045      1.00000
     18       4.1045      1.00000
     19       4.1191      1.00000
     20       4.1191      1.00000
     21       7.6335      0.00000
     22       7.6335      0.00000
     23       9.5473      0.00000
     24       9.5474      0.00000
     25       9.5915      0.00000
     26       9.5916      0.00000
     27      10.8452      0.00000
     28      10.8876      0.00000

 k-point     3 :       0.0345   -0.0000    0.0345
  band No.  band energies     occupation 
      1     -13.0996      1.00000
      2     -13.0996      1.00000
      3     -13.0996      1.00000
      4     -13.0996      1.00000
      5     -10.5438      1.00000
      6     -10.5438      1.00000
      7     -10.5436      1.00000
      8     -10.5436      1.00000
      9     -10.5369      1.00000
     10     -10.5369      1.00000
     11      -6.6319      1.00000
     12      -6.6319      1.00000
     13      -0.7578      1.00000
     14      -0.7578      1.00000
     15       3.0858      1.00000
     16       3.0858      1.00000
     17       4.0892      1.00000
     18       4.0892      1.00000
     19       4.1482      1.00000
     20       4.1482      1.00000
     21       7.5931      0.00000
     22       7.5931      0.00000
     23       9.4225      0.00000
     24       9.4229      0.00000
     25       9.5848      0.00000
     26       9.5849      0.00000
     27      10.8061      0.00000
     28      10.8856      0.00000

 k-point     4 :       0.0517   -0.0000    0.0517
  band No.  band energies     occupation 
      1     -13.0996      1.00000
      2     -13.0996      1.00000
      3     -13.0995      1.00000
      4     -13.0995      1.00000
      5     -10.5440      1.00000
      6     -10.5440      1.00000
      7     -10.5435      1.00000
      8     -10.5435      1.00000
      9     -10.5367      1.00000
     10     -10.5367      1.00000
     11      -6.6162      1.00000
     12      -6.6162      1.00000
     13      -0.8054      1.00000
     14      -0.8054      1.00000
     15       3.0945      1.00000
     16       3.0945      1.00000
     17       4.0642      1.00000
     18       4.0642      1.00000
     19       4.1985      1.00000
     20       4.1985      1.00000
     21       7.5211      0.00000
     22       7.5211      0.00000
     23       9.2553      0.00000
     24       9.2553      0.00000
     25       9.5761      0.00000
     26       9.5765      0.00000
     27      10.6978      0.00000
     28      10.7425      0.00000

 k-point     5 :       0.0690   -0.0000    0.0690
  band No.  band energies     occupation 
      1     -13.0996      1.00000
      2     -13.0996      1.00000
      3     -13.0995      1.00000
      4     -13.0995      1.00000
      5     -10.5444      1.00000
      6     -10.5444      1.00000
      7     -10.5433      1.00000
      8     -10.5433      1.00000
      9     -10.5364      1.00000
     10     -10.5364      1.00000
     11      -6.5944      1.00000
     12      -6.5944      1.00000
     13      -0.8684      1.00000
     14      -0.8684      1.00000
     15       3.0990      1.00000
     16       3.0991      1.00000
     17       4.0299      1.00000
     18       4.0299      1.00000
     19       4.2712      1.00000
     20       4.2712      1.00000
     21       7.4123      0.00000
     22       7.4123      0.00000
     23       9.0820      0.00000
     24       9.0820      0.00000
     25       9.5685      0.00000
     26       9.5686      0.00000
     27      10.5624      0.00000
     28      10.6592      0.00000

 k-point     6 :       0.0862   -0.0000    0.0862
  band No.  band energies     occupation 
      1     -13.0996      1.00000
      2     -13.0996      1.00000
      3     -13.0994      1.00000
      4     -13.0994      1.00000
[...]
  0.000   0.000   0.000   0.000   0.000   0.000  12.716   0.000   0.000   0.000   0.000   0.000  18.330   0.000   0.000   0.000
  0.000   0.000   0.000   0.000   0.000  -0.247   0.000   0.000  12.716   0.000   0.000  -0.356   0.000   0.000  18.330   0.000
  0.000   0.000   0.000   0.000  18.330   0.000   0.000   0.000   0.000   0.356  26.431   0.000   0.000   0.000   0.000   0.513
  0.000   0.000   0.000   0.000   0.000   0.000  18.330   0.000   0.000   0.000   0.000   0.000  26.431   0.000   0.000   0.000
  0.000   0.000   0.000   0.000   0.000  -0.356   0.000   0.000  18.330   0.000   0.000  -0.513   0.000   0.000  26.431   0.000
  0.000   0.000   0.000   0.000   0.000   0.000   0.000   0.000   0.000   0.000   0.000   0.000   0.000   0.000   0.000   0.000
  0.000   0.000   0.000   0.000   0.000   0.000   0.000   0.000   0.000   0.000   0.000   0.000   0.000   0.000   0.000   0.000
  0.000   0.000   0.000   0.000   0.000   0.000   0.000   0.000  -0.000   0.000   0.000   0.000   0.000   0.000  -0.000   0.000
  0.000   0.000   0.000   0.000   0.000   0.000   0.000   0.000   0.000   0.000   0.000   0.000   0.000   0.000   0.000   0.000
  0.000   0.000   0.000   0.000  -0.000   0.000   0.000   0.000   0.000   0.000  -0.000   0.000   0.000   0.000   0.000   0.000
 pseudopotential strength for first ion, spin component:           2
  0.000  -0.000   0.000  -0.000   0.000   0.000  -0.000   0.000   0.000   0.000   0.000   0.000  -0.000   0.000   0.000   0.000
  0.000  -0.000   0.000  -0.000   0.000   0.000  -0.000   0.000   0.000   0.000   0.000   0.000  -0.000   0.000   0.000   0.000
  0.000   0.000   0.000   0.000   0.000  -0.000   0.000  -0.247  -0.000  -0.000   0.000  -0.000   0.000  -0.356  -0.000  -0.000
 -0.000   0.000  -0.000   0.000   0.000   0.247   0.000  -0.000  -0.247  -0.000   0.000   0.356   0.000  -0.000  -0.356  -0.000
  0.000   0.000   0.000   0.000  -0.000  -0.000   0.247  -0.000   0.000  -0.000  -0.000  -0.000   0.356  -0.000   0.000  -0.000
  0.000   0.000   0.000   0.000   0.000  -0.000   0.000  -0.356  -0.000  -0.000   0.000  -0.000   0.000  -0.513  -0.000  -0.000
 -0.000   0.000  -0.000   0.000   0.000   0.356   0.000  -0.000  -0.356  -0.000   0.000   0.513   0.000  -0.000  -0.513  -0.000
  0.000   0.000   0.000   0.000  -0.000  -0.000   0.356  -0.000   0.000  -0.000  -0.000  -0.000   0.513  -0.000   0.000  -0.000
 -0.000  -0.000  -0.000  -0.000  -0.000   0.000   0.000   0.000   0.000   0.000  -0.000   0.000   0.000   0.000   0.000   0.000
  0.000   0.000   0.000   0.000  -0.000   0.000  -0.000   0.000   0.000   0.000  -0.000   0.000  -0.000   0.000   0.000   0.000
 -0.000   0.000  -0.000   0.000  -0.000  -0.000   0.000   0.000  -0.000  -0.000  -0.000  -0.000   0.000   0.000  -0.000  -0.000
 -0.000  -0.000  -0.000  -0.000   0.000   0.000   0.000   0.000  -0.000   0.000   0.000   0.000   0.000   0.000  -0.000   0.000
  0.000   0.000   0.000   0.000   0.000   0.000  -0.000  -0.000   0.000   0.000   0.000   0.000  -0.000  -0.000   0.000   0.000
 pseudopotential strength for first ion, spin component:           3
  0.000   0.000   0.000   0.000   0.000  -0.000  -0.000  -0.000   0.000  -0.000   0.000  -0.000  -0.000  -0.000   0.000  -0.000
  0.000   0.000   0.000   0.000   0.000  -0.000  -0.000  -0.000   0.000  -0.000   0.000  -0.000  -0.000  -0.000   0.000  -0.000
  0.000  -0.000   0.000  -0.000   0.000   0.000   0.000  -0.247  -0.000   0.000   0.000   0.000   0.000  -0.356  -0.000   0.000
 -0.000  -0.000  -0.000  -0.000   0.000   0.247   0.000   0.000   0.247   0.000   0.000   0.356   0.000   0.000   0.356   0.000
  0.000  -0.000   0.000  -0.000  -0.000   0.000  -0.247   0.000   0.000   0.000  -0.000   0.000  -0.356   0.000   0.000   0.000
  0.000  -0.000   0.000  -0.000   0.000   0.000   0.000  -0.356  -0.000   0.000   0.000   0.000   0.000  -0.513  -0.000   0.000
 -0.000  -0.000  -0.000  -0.000   0.000   0.356   0.000   0.000   0.356   0.000   0.000   0.513   0.000   0.000   0.513   0.000
  0.000  -0.000   0.000  -0.000  -0.000   0.000  -0.356   0.000   0.000   0.000  -0.000   0.000  -0.513   0.000   0.000   0.000
 -0.000   0.000  -0.000   0.000  -0.000  -0.000   0.000  -0.000   0.000  -0.000  -0.000  -0.000   0.000  -0.000   0.000  -0.000
  0.000  -0.000   0.000  -0.000  -0.000  -0.000  -0.000  -0.000   0.000  -0.000  -0.000  -0.000  -0.000  -0.000   0.000  -0.000
 -0.000  -0.000  -0.000  -0.000  -0.000   0.000   0.000  -0.000  -0.000   0.000  -0.000   0.000   0.000  -0.000  -0.000   0.000
 -0.000   0.000  -0.000   0.000   0.000  -0.000   0.000  -0.000  -0.000  -0.000   0.000  -0.000   0.000  -0.000  -0.000  -0.000
  0.000  -0.000   0.000  -0.000   0.000  -0.000  -0.000   0.000   0.000  -0.000   0.000  -0.000  -0.000   0.000   0.000  -0.000
 pseudopotential strength for first ion, spin component:           4
 51.595   0.000  56.136   0.000  -0.000   0.000  -0.000   0.000  -0.000   0.000  -0.000   0.000  -0.000   0.000  -0.000   0.000
 56.136   0.000  61.081   0.000  -0.000   0.000  -0.000   0.000  -0.000   0.000  -0.000   0.000  -0.000   0.000  -0.000   0.000
 -0.000   0.000  -0.000   0.000  12.716   0.000  -0.000   0.000  -0.000  -0.247  18.330   0.000  -0.000   0.000  -0.000  -0.356
 -0.000   0.000  -0.000   0.000  -0.000   0.000  12.716   0.000  -0.000   0.000  -0.000   0.000  18.330   0.000  -0.000   0.000
 -0.000   0.000  -0.000   0.000  -0.000   0.247  -0.000   0.000  12.716   0.000  -0.000   0.356  -0.000   0.000  18.330   0.000
 -0.000   0.000  -0.000   0.000  18.330   0.000  -0.000   0.000  -0.000  -0.356  26.431   0.000  -0.000   0.000  -0.000  -0.513
 -0.000   0.000  -0.000   0.000  -0.000   0.000  18.330   0.000  -0.000   0.000  -0.000   0.000  26.431   0.000  -0.000   0.000
 -0.000   0.000  -0.000   0.000  -0.000   0.356  -0.000   0.000  18.330   0.000  -0.000   0.513  -0.000   0.000  26.431   0.000
 -0.000   0.000  -0.000   0.000  -0.000   0.000  -0.000   0.000  -0.000   0.000  -0.000   0.000  -0.000   0.000  -0.000   0.000
 -0.000   0.000  -0.000   0.000  -0.000   0.000  -0.000   0.000  -0.000   0.000  -0.000   0.000  -0.000   0.000  -0.000   0.000
 -0.000   0.000  -0.000   0.000  -0.000   0.000  -0.000   0.000   0.000   0.000  -0.000   0.000  -0.000   0.000   0.000   0.000
 -0.000   0.000  -0.000   0.000  -0.000   0.000  -0.000   0.000  -0.000   0.000  -0.000   0.000  -0.000   0.000  -0.000   0.000
 -0.000   0.000  -0.000   0.000   0.000   0.000  -0.000   0.000  -0.000   0.000   0.000   0.000  -0.000   0.000  -0.000   0.000
 total augmentation occupancy for first ion, spin component:           1
  2.000   0.000   0.000   0.000   0.000   0.000   0.000   0.000   0.000   0.000   0.000   0.000   0.000
  0.000   0.000   0.000   0.000   0.000   0.000   0.000   0.000   0.000   0.000   0.000   0.000   0.000
  0.000   0.000   1.333   0.000   0.000   0.000   0.000   0.000   0.000   0.000   0.000   0.000   0.000
  0.000   0.000   0.000   1.333   0.000   0.000   0.000   0.000   0.000   0.000   0.000   0.000   0.000
  0.000   0.000   0.000   0.000   1.333   0.000   0.000   0.000   0.000   0.000   0.000   0.000   0.000
  0.000   0.000   0.000   0.000   0.000   0.000   0.000   0.000   0.000   0.000   0.000   0.000   0.000
  0.000   0.000   0.000   0.000   0.000   0.000   0.000   0.000   0.000   0.000   0.000   0.000   0.000
  0.000   0.000   0.000   0.000   0.000   0.000   0.000   0.000   0.000   0.000   0.000   0.000   0.000
  0.000   0.000   0.000   0.000   0.000   0.000   0.000   0.000   0.000   0.000   0.000   0.000   0.000
  0.000   0.000   0.000   0.000   0.000   0.000   0.000   0.000   0.000   0.000   0.000   0.000   0.000
  0.000   0.000   0.000   0.000   0.000   0.000   0.000   0.000   0.000   0.000   0.000   0.000   0.000
  0.000   0.000   0.000   0.000   0.000   0.000   0.000   0.000   0.000   0.000   0.000   0.000   0.000
  0.000   0.000   0.000   0.000   0.000   0.000   0.000   0.000   0.000   0.000   0.000   0.000   0.000
 total augmentation occupancy for first ion, spin component:           2
  0.333   0.000   0.000   0.000   0.000   0.000   0.000   0.000   0.000   0.000   0.000   0.000   0.000
  0.000   0.000   0.000   0.000   0.000   0.000   0.000   0.000   0.000   0.000   0.000   0.000   0.000
  0.000   0.000   0.222   0.000   0.000   0.000   0.000   0.000   0.000   0.000   0.000   0.000   0.000
  0.000   0.000   0.000   0.222   0.000   0.000   0.000   0.000   0.000   0.000   0.000   0.000   0.000
  0.000   0.000   0.000   0.000   0.222   0.000   0.000   0.000   0.000   0.000   0.000   0.000   0.000
  0.000   0.000   0.000   0.000   0.000   0.000   0.000   0.000   0.000   0.000   0.000   0.000   0.000
  0.000   0.000   0.000   0.000   0.000   0.000   0.000   0.000   0.000   0.000   0.000   0.000   0.000
  0.000   0.000   0.000   0.000   0.000   0.000   0.000   0.000   0.000   0.000   0.000   0.000   0.000
  0.000   0.000   0.000   0.000   0.000   0.000   0.000   0.000   0.000   0.000   0.000   0.000   0.000
  0.000   0.000   0.000   0.000   0.000   0.000   0.000   0.000   0.000   0.000   0.000   0.000   0.000
  0.000   0.000   0.000   0.000   0.000   0.000   0.000   0.000   0.000   0.000   0.000   0.000   0.000
  0.000   0.000   0.000   0.000   0.000   0.000   0.000   0.000   0.000   0.000   0.000   0.000   0.000
  0.000   0.000   0.000   0.000   0.000   0.000   0.000   0.000   0.000   0.000   0.000   0.000   0.000
 total augmentation occupancy for first ion, spin component:           3
  0.333   0.000   0.000   0.000   0.000   0.000   0.000   0.000   0.000   0.000   0.000   0.000   0.000
  0.000   0.000   0.000   0.000   0.000   0.000   0.000   0.000   0.000   0.000   0.000   0.000   0.000
  0.000   0.000   0.222   0.000   0.000   0.000   0.000   0.000   0.000   0.000   0.000   0.000   0.000
  0.000   0.000   0.000   0.222   0.000   0.000   0.000   0.000   0.000   0.000   0.000   0.000   0.000
  0.000   0.000   0.000   0.000   0.222   0.000   0.000   0.000   0.000   0.000   0.000   0.000   0.000
  0.000   0.000   0.000   0.000   0.000   0.000   0.000   0.000   0.000   0.000   0.000   0.000   0.000
  0.000   0.000   0.000   0.000   0.000   0.000   0.000   0.000   0.000   0.000   0.000   0.000   0.000
  0.000   0.000   0.000   0.000   0.000   0.000   0.000   0.000   0.000   0.000   0.000   0.000   0.000
  0.000   0.000   0.000   0.000   0.000   0.000   0.000   0.000   0.000   0.000   0.000   0.000   0.000
  0.000   0.000   0.000   0.000   0.000   0.000   0.000   0.000   0.000   0.000   0.000   0.000   0.000
  0.000   0.000   0.000   0.000   0.000   0.000   0.000   0.000   0.000   0.000   0.000   0.000   0.000
  0.000   0.000   0.000   0.000   0.000   0.000   0.000   0.000   0.000   0.000   0.000   0.000   0.000
  0.000   0.000   0.000   0.000   0.000   0.000   0.000   0.000   0.000   0.000   0.000   0.000   0.000
 total augmentation occupancy for first ion, spin component:           4
  0.333   0.000   0.000   0.000   0.000   0.000   0.000   0.000   0.000   0.000   0.000   0.000   0.000
  0.000   0.000   0.000   0.000   0.000   0.000   0.000   0.000   0.000   0.000   0.000   0.000   0.000
  0.000   0.000   0.222   0.000   0.000   0.000   0.000   0.000   0.000   0.000   0.000   0.000   0.000
  0.000   0.000   0.000   0.222   0.000   0.000   0.000   0.000   0.000   0.000   0.000   0.000   0.000
  0.000   0.000   0.000   0.000   0.222   0.000   0.000   0.000   0.000   0.000   0.000   0.000   0.000
  0.000   0.000   0.000   0.000   0.000   0.000   0.000   0.000   0.000   0.000   0.000   0.000   0.000
  0.000   0.000   0.000   0.000   0.000   0.000   0.000   0.000   0.000   0.000   0.000   0.000   0.000
  0.000   0.000   0.000   0.000   0.000   0.000   0.000   0.000   0.000   0.000   0.000   0.000   0.000
  0.000   0.000   0.000   0.000   0.000   0.000   0.000   0.000   0.000   0.000   0.000   0.000   0.000
  0.000   0.000   0.000   0.000   0.000   0.000   0.000   0.000   0.000   0.000   0.000   0.000   0.000
  0.000   0.000   0.000   0.000   0.000   0.000   0.000   0.000   0.000   0.000   0.000   0.000   0.000
  0.000   0.000   0.000   0.000   0.000   0.000   0.000   0.000   0.000   0.000   0.000   0.000   0.000
  0.000   0.000   0.000   0.000   0.000   0.000   0.000   0.000   0.000   0.000   0.000   0.000   0.000


------------------------ aborting loop because EDIFF is reached ----------------------------------------


    CHARGE:  cpu time    2.2784: real time    2.8847
    FORLOC:  cpu time    0.1795: real time    0.1795
    FORNL :  cpu time    6.0795: real time    6.8326
    STRESS:  cpu time   25.8726: real time   28.6601
    FORCOR:  cpu time    0.8544: real time    0.9792
    FORHAR:  cpu time    0.3555: real time    0.4719
    OFIELD:  cpu time    0.0028: real time    0.0028

  FORCE on cell =-STRESS in cart. coord.  units (eV):
  Direction    XX          YY          ZZ          XY          YZ          ZX
  --------------------------------------------------------------------------------------
  Alpha Z    34.19906    34.19906    34.19906
  Ewald    -455.07231  -455.07231  -455.07231    -0.00000    -0.00000    -0.00000
  Hartree   168.42446   172.53821   172.49480     0.25640    -0.03767     0.19669
  E(xc)     -90.43833   -90.20451   -90.19198     0.04372     0.02247     0.03455
  Local    -127.67977  -131.96832  -132.31176     0.11016     0.32664     0.11238
  n-local   181.54858   179.44100   179.70084    -0.36665    -0.25181    -0.30550
  augment    95.78139    96.30524    96.08952     0.04403     0.04834     0.04071
  Kinetic   198.53525   193.01525   192.77806    -2.52035    -1.26446    -1.99357
  Fock        0.00000     0.00000     0.00000     0.00000     0.00000     0.00000
  -------------------------------------------------------------------------------------
  Total       5.29833    -1.74638    -2.31375    -2.43269    -1.15649    -1.91474
  in kB     119.44946   -39.37178   -52.16295   -54.84445   -26.07271   -43.16731
  external pressure =        9.30 kB  Pullay stress =        0.00 kB


 VOLUME and BASIS-vectors are now :
 -----------------------------------------------------------------------------
  energy-cutoff  :      600.00
  volume of cell :       71.07
      direct lattice vectors                 reciprocal lattice vectors
     0.000000000  3.287596300  3.287596300    -0.152086800  0.152086800  0.152086800
     3.287596300  0.000000000  3.287596300     0.152086800 -0.152086800  0.152086800
     3.287596300  3.287596300  0.000000000     0.152086800  0.152086800 -0.152086800

  length of vectors
     4.649363275  4.649363275  4.649363275     0.263422064  0.263422064  0.263422064


 FORCES acting on ions
    electron-ion (+dipol)            ewald-force                    non-local-force                 convergence-correction
 -----------------------------------------------------------------------------------------------
   -.114E-06 0.757E-06 -.596E-06   0.182E-15 0.246E-15 -.124E-14   0.194E-05 -.143E-05 -.198E-07   -.521E-06 0.255E-06 0.327E-06
   -.328E-05 -.312E-05 0.290E-05   0.108E-14 -.158E-14 0.388E-14   -.671E-06 0.491E-05 -.959E-07   0.216E-05 0.109E-05 -.149E-05
 -----------------------------------------------------------------------------------------------
   -.340E-05 -.237E-05 0.230E-05   0.126E-14 -.133E-14 0.264E-14   0.127E-05 0.349E-05 -.116E-06   0.164E-05 0.135E-05 -.116E-05


 POSITION                                       TOTAL-FORCE (eV/Angst)
 -----------------------------------------------------------------------------------
      0.00000      0.00000      0.00000         0.000002     -0.000002     -0.000001
      3.28760      3.28760      3.28760        -0.000002      0.000002      0.000001
 -----------------------------------------------------------------------------------
    total drift:                               -0.000000      0.000002      0.000001


--------------------------------------------------------------------------------------------------------



  FREE ENERGIE OF THE ION-ELECTRON SYSTEM (eV)
  ---------------------------------------------------
  free  energy   TOTEN  =        -7.94609915 eV

  energy  without entropy=       -7.94609915  energy(sigma->0) =       -7.94609915



--------------------------------------------------------------------------------------------------------


    POTLOK:  cpu time    1.1990: real time    1.2414


--------------------------------------------------------------------------------------------------------


     LOOP+:  cpu time 1970.8789: real time 2669.4427
    4ORBIT:  cpu time    0.0000: real time    0.0000

 Spin-Orbit-Coupling matrix elements

 Ion:    1  E_soc:     -0.1848914
 l=   1
     0.0000000    -0.0383624    -0.0301853
    -0.0383624     0.0000000    -0.0239782
    -0.0301853    -0.0239782     0.0000000
 l=   2
     0.0000000    -0.0000068     0.0000000    -0.0000118     0.0000351
    -0.0000068     0.0000000     0.0000266    -0.0000070     0.0000116
     0.0000000     0.0000266     0.0000000     0.0000231     0.0000000
    -0.0000118    -0.0000070     0.0000231     0.0000000     0.0000094
     0.0000351     0.0000116     0.0000000     0.0000094     0.0000000
 l=   3
     0.0000000     0.0000000     0.0000000     0.0000000     0.0000000     0.0000000     0.0000000
     0.0000000     0.0000000     0.0000000     0.0000000     0.0000000     0.0000000     0.0000000
     0.0000000     0.0000000     0.0000000     0.0000000     0.0000000     0.0000000     0.0000000
     0.0000000     0.0000000     0.0000000     0.0000000     0.0000000     0.0000000     0.0000000
     0.0000000     0.0000000     0.0000000     0.0000000     0.0000000     0.0000000     0.0000000
     0.0000000     0.0000000     0.0000000     0.0000000     0.0000000     0.0000000     0.0000000
     0.0000000     0.0000000     0.0000000     0.0000000     0.0000000     0.0000000     0.0000000

 Ion:    2  E_soc:     -0.8503359
 l=   1
     0.0000000    -0.0819557    -0.0714791
    -0.0819557     0.0000000    -0.0695308
    -0.0714791    -0.0695308     0.0000000
 l=   2
     0.0000000    -0.0133927     0.0000000    -0.0135156    -0.0540067
    -0.0133927     0.0000000    -0.0401532    -0.0134653    -0.0133419
     0.0000000    -0.0401532     0.0000000    -0.0407399     0.0000000
    -0.0135156    -0.0134653    -0.0407399     0.0000000    -0.0135872
    -0.0540067    -0.0133419     0.0000000    -0.0135872     0.0000000
 l=   3
     0.0000000     0.0000000     0.0000000     0.0000000     0.0000000     0.0000000     0.0000000
     0.0000000     0.0000000     0.0000000     0.0000000     0.0000000     0.0000000     0.0000000
     0.0000000     0.0000000     0.0000000     0.0000000     0.0000000     0.0000000     0.0000000
     0.0000000     0.0000000     0.0000000     0.0000000     0.0000000     0.0000000     0.0000000
     0.0000000     0.0000000     0.0000000     0.0000000     0.0000000     0.0000000     0.0000000
     0.0000000     0.0000000     0.0000000     0.0000000     0.0000000     0.0000000     0.0000000
     0.0000000     0.0000000     0.0000000     0.0000000     0.0000000     0.0000000     0.0000000

 total amount of memory used by VASP MPI-rank0   304634. kBytes
=======================================================================

   base      :      30000. kBytes
   nonl-proj :      69849. kBytes
   fftplans  :      19688. kBytes
   grid      :      19456. kBytes
   one-center:         62. kBytes
   wavefun   :     165579. kBytes

  
  
 General timing and accounting informations for this job:
 ========================================================
  
                  Total CPU time used (sec):     2014.477
                            User time (sec):     1934.195
                          System time (sec):       80.283
                         Elapsed time (sec):     2727.081
  
                   Maximum memory used (kb):      366116.
                   Average memory used (kb):           0.
  
                          Minor page faults:      1360762
                          Major page faults:            0
                 Voluntary context switches:        13274
