<?xml version="1.0" encoding="ISO-8859-1"?>
<modeling>
 <generator>
  <i name="program" type="string">vasp </i>
  <i name="version" type="string">5.4.4.18Apr17-6-g9f103f2a35  </i>
  <i name="subversion" type="string">(build Mar 20 2018 18:07:30) complex            parallel </i>
  <i name="platform" type="string">LinuxGNU </i>
  <i name="date" type="string">2020 07 10 </i>
  <i name="time" type="string">15:08:51 </i>
 </generator>
 <incar>
  <i type="string" name="SYSTEM"> PbTe</i>
  <i type="int" name="ISTART">     1</i>
  <i type="string" name="PREC">accurate</i>
  <i type="string" name="ALGO"> A</i>
  <i type="logical" name="ADDGRID"> T  </i>
  <i type="logical" name="LSORBIT"> T  </i>
  <i type="int" name="ISPIN">     1</i>
  <i type="int" name="ICHARG">    11</i>
  <i type="int" name="IBRION">    -1</i>
  <i name="EDIFF">      0.00000010</i>
  <i name="EDIFFG">     -0.00100000</i>
  <i type="int" name="NSW">     0</i>
  <i type="int" name="ISYM">    -1</i>
  <i name="ENCUT">    600.00000000</i>
  <i type="int" name="NBANDS">    28</i>
  <i type="logical" name="LREAL"> F  </i>
  <i type="logical" name="LPLANE"> T  </i>
  <i type="int" name="ISMEAR">     0</i>
  <i name="SIGMA">      0.01000000</i>
  <i type="int" name="LMAXMIX">     4</i>
  <i type="logical" name="LWAVE"> F  </i>
  <i type="logical" name="LCHARG"> F  </i>
  <i type="logical" name="GGA_COMPAT"> F  </i>
  <v type="int" name="KPOINT_BSE">    -1     0     0     0</v>
 </incar>
 <structure name="primitive_cell" >
  <crystal>
   <varray name="basis" >
    <v>       0.00000000       3.28759630       3.28759630 </v>
    <v>       3.28759630       0.00000000       3.28759630 </v>
    <v>       3.28759630       3.28759630       0.00000000 </v>
   </varray>
   <i name="volume">     71.06658469 </i>
   <varray name="rec_basis" >
    <v>      -0.15208680       0.15208680       0.15208680 </v>
    <v>       0.15208680      -0.15208680       0.15208680 </v>
    <v>       0.15208680       0.15208680      -0.15208680 </v>
   </varray>
  </crystal>
  <varray name="positions" >
   <v>       0.00000000       0.00000000       0.00000000 </v>
   <v>      -0.50000000      -0.50000000      -0.50000000 </v>
  </varray>
 </structure>
 <varray name="primitive_index" >
  <v type="int" >        1 </v>
  <v type="int" >        2 </v>
 </varray>
 <kpoints>
  <varray name="kpointlist" >
   <v>       0.00000000       0.00000000       0.00000000 </v>
   <v>       0.01724138      -0.00000000       0.01724138 </v>
   <v>       0.03448276      -0.00000000       0.03448276 </v>
   <v>       0.05172414      -0.00000000       0.05172414 </v>
   <v>       0.06896552      -0.00000000       0.06896552 </v>
   <v>       0.08620690      -0.00000000       0.08620690 </v>
   <v>       0.10344828      -0.00000000       0.10344828 </v>
   <v>       0.12068966      -0.00000000       0.12068966 </v>
   <v>       0.13793103      -0.00000000       0.13793103 </v>
   <v>       0.15517241      -0.00000000       0.15517241 </v>
   <v>       0.17241379      -0.00000000       0.17241379 </v>
   <v>       0.18965517      -0.00000000       0.18965517 </v>
   <v>       0.20689655      -0.00000000       0.20689655 </v>
   <v>       0.22413793      -0.00000000       0.22413793 </v>
   <v>       0.24137931      -0.00000000       0.24137931 </v>
   <v>       0.25862069      -0.00000000       0.25862069 </v>
   <v>       0.27586207      -0.00000000       0.27586207 </v>
   <v>       0.29310345      -0.00000000       0.29310345 </v>
   <v>       0.31034483      -0.00000000       0.31034483 </v>
   <v>       0.32758621      -0.00000000       0.32758621 </v>
   <v>       0.34482759      -0.00000000       0.34482759 </v>
   <v>       0.36206897      -0.00000000       0.36206897 </v>
   <v>       0.37931034      -0.00000000       0.37931034 </v>
   <v>       0.39655172      -0.00000000       0.39655172 </v>
   <v>       0.41379310      -0.00000000       0.41379310 </v>
   <v>       0.43103448      -0.00000000       0.43103448 </v>
   <v>       0.44827586      -0.00000000       0.44827586 </v>
   <v>       0.46551724      -0.00000000       0.46551724 </v>
   <v>       0.48275862      -0.00000000       0.48275862 </v>
   <v>       0.50000000      -0.00000000       0.50000000 </v>
   <v>       0.50000000      -0.00000000       0.50000000 </v>
   <v>       0.50000000       0.01666667       0.51666667 </v>
   <v>       0.50000000       0.03333333       0.53333333 </v>
   <v>       0.50000000       0.05000000       0.55000000 </v>
   <v>       0.50000000       0.06666667       0.56666667 </v>
   <v>       0.50000000       0.08333333       0.58333333 </v>
   <v>       0.50000000       0.10000000       0.60000000 </v>
   <v>       0.50000000       0.11666667       0.61666667 </v>
   <v>       0.50000000       0.13333333       0.63333333 </v>
   <v>       0.50000000       0.15000000       0.65000000 </v>
   <v>       0.50000000       0.16666667       0.66666667 </v>
   <v>       0.50000000       0.18333333       0.68333333 </v>
   <v>       0.50000000       0.20000000       0.70000000 </v>
   <v>       0.50000000       0.21666667       0.71666667 </v>
   <v>       0.50000000       0.23333333       0.73333333 </v>
   <v>       0.50000000       0.25000000       0.75000000 </v>
   <v>       0.50000000       0.25000000       0.75000000 </v>
   <v>       0.48863636       0.26136364       0.75000000 </v>
   <v>       0.47727273       0.27272727       0.75000000 </v>
   <v>       0.46590909       0.28409091       0.75000000 </v>
   <v>       0.45454545       0.29545455       0.75000000 </v>
   <v>       0.44318182       0.30681818       0.75000000 </v>
   <v>       0.43181818       0.31818182       0.75000000 </v>
   <v>       0.42045455       0.32954545       0.75000000 </v>
   <v>       0.40909091       0.34090909       0.75000000 </v>
   <v>       0.39772727       0.35227273       0.75000000 </v>
   <v>       0.38636364       0.36363636       0.75000000 </v>
   <v>       0.37500000       0.37500000       0.75000000 </v>
   <v>       0.37500000       0.37500000       0.75000000 </v>
   <v>       0.36290323       0.36290323       0.72580645 </v>
   <v>       0.35080645       0.35080645       0.70161290 </v>
   <v>       0.33870968       0.33870968       0.67741935 </v>
   <v>       0.32661290       0.32661290       0.65322581 </v>
   <v>       0.31451613       0.31451613       0.62903226 </v>
   <v>       0.30241935       0.30241935       0.60483871 </v>
   <v>       0.29032258       0.29032258       0.58064516 </v>
   <v>       0.27822581       0.27822581       0.55645161 </v>
   <v>       0.26612903       0.26612903       0.53225806 </v>
   <v>       0.25403226       0.25403226       0.50806452 </v>
   <v>       0.24193548       0.24193548       0.48387097 </v>
   <v>       0.22983871       0.22983871       0.45967742 </v>
   <v>       0.21774194       0.21774194       0.43548387 </v>
   <v>       0.20564516       0.20564516       0.41129032 </v>
   <v>       0.19354839       0.19354839       0.38709677 </v>
   <v>       0.18145161       0.18145161       0.36290323 </v>
   <v>       0.16935484       0.16935484       0.33870968 </v>
   <v>       0.15725806       0.15725806       0.31451613 </v>
   <v>       0.14516129       0.14516129       0.29032258 </v>
   <v>       0.13306452       0.13306452       0.26612903 </v>
   <v>       0.12096774       0.12096774       0.24193548 </v>
   <v>       0.10887097       0.10887097       0.21774194 </v>
   <v>       0.09677419       0.09677419       0.19354839 </v>
   <v>       0.08467742       0.08467742       0.16935484 </v>
   <v>       0.07258065       0.07258065       0.14516129 </v>
   <v>       0.06048387       0.06048387       0.12096774 </v>
   <v>       0.04838710       0.04838710       0.09677419 </v>
   <v>       0.03629032       0.03629032       0.07258065 </v>
   <v>       0.02419355       0.02419355       0.04838710 </v>
   <v>       0.01209677       0.01209677       0.02419355 </v>
   <v>       0.00000000       0.00000000       0.00000000 </v>
   <v>       0.00000000       0.00000000       0.00000000 </v>
   <v>       0.02000000       0.02000000       0.02000000 </v>
   <v>       0.04000000       0.04000000       0.04000000 </v>
   <v>       0.06000000       0.06000000       0.06000000 </v>
   <v>       0.08000000       0.08000000       0.08000000 </v>
   <v>       0.10000000       0.10000000       0.10000000 </v>
   <v>       0.12000000       0.12000000       0.12000000 </v>
   <v>       0.14000000       0.14000000       0.14000000 </v>
   <v>       0.16000000       0.16000000       0.16000000 </v>
   <v>       0.18000000       0.18000000       0.18000000 </v>
   <v>       0.20000000       0.20000000       0.20000000 </v>
   <v>       0.22000000       0.22000000       0.22000000 </v>
   <v>       0.24000000       0.24000000       0.24000000 </v>
   <v>       0.26000000       0.26000000       0.26000000 </v>
   <v>       0.28000000       0.28000000       0.28000000 </v>
   <v>       0.30000000       0.30000000       0.30000000 </v>
   <v>       0.32000000       0.32000000       0.32000000 </v>
   <v>       0.34000000       0.34000000       0.34000000 </v>
   <v>       0.36000000       0.36000000       0.36000000 </v>
   <v>       0.38000000       0.38000000       0.38000000 </v>
   <v>       0.40000000       0.40000000       0.40000000 </v>
   <v>       0.42000000       0.42000000       0.42000000 </v>
   <v>       0.44000000       0.44000000       0.44000000 </v>
   <v>       0.46000000       0.46000000       0.46000000 </v>
   <v>       0.48000000       0.48000000       0.48000000 </v>
   <v>       0.50000000       0.50000000       0.50000000 </v>
   <v>       0.50000000       0.50000000       0.50000000 </v>
   <v>       0.50694444       0.48611111       0.50694444 </v>
   <v>       0.51388889       0.47222222       0.51388889 </v>
   <v>       0.52083333       0.45833333       0.52083333 </v>
   <v>       0.52777778       0.44444444       0.52777778 </v>
   <v>       0.53472222       0.43055556       0.53472222 </v>
   <v>       0.54166667       0.41666667       0.54166667 </v>
   <v>       0.54861111       0.40277778       0.54861111 </v>
   <v>       0.55555556       0.38888889       0.55555556 </v>
   <v>       0.56250000       0.37500000       0.56250000 </v>
   <v>       0.56944444       0.36111111       0.56944444 </v>
   <v>       0.57638889       0.34722222       0.57638889 </v>
   <v>       0.58333333       0.33333333       0.58333333 </v>
   <v>       0.59027778       0.31944444       0.59027778 </v>
   <v>       0.59722222       0.30555556       0.59722222 </v>
   <v>       0.60416667       0.29166667       0.60416667 </v>
   <v>       0.61111111       0.27777778       0.61111111 </v>
   <v>       0.61805556       0.26388889       0.61805556 </v>
   <v>       0.62500000       0.25000000       0.62500000 </v>
   <v>       0.62500000       0.25000000       0.62500000 </v>
   <v>       0.61363636       0.25000000       0.63636364 </v>
   <v>       0.60227273       0.25000000       0.64772727 </v>
   <v>       0.59090909       0.25000000       0.65909091 </v>
   <v>       0.57954545       0.25000000       0.67045455 </v>
   <v>       0.56818182       0.25000000       0.68181818 </v>
   <v>       0.55681818       0.25000000       0.69318182 </v>
   <v>       0.54545455       0.25000000       0.70454545 </v>
   <v>       0.53409091       0.25000000       0.71590909 </v>
   <v>       0.52272727       0.25000000       0.72727273 </v>
   <v>       0.51136364       0.25000000       0.73863636 </v>
   <v>       0.50000000       0.25000000       0.75000000 </v>
   <v>       0.50000000       0.25000000       0.75000000 </v>
   <v>       0.50000000       0.26190476       0.73809524 </v>
   <v>       0.50000000       0.27380952       0.72619048 </v>
   <v>       0.50000000       0.28571429       0.71428571 </v>
   <v>       0.50000000       0.29761905       0.70238095 </v>
   <v>       0.50000000       0.30952381       0.69047619 </v>
   <v>       0.50000000       0.32142857       0.67857143 </v>
   <v>       0.50000000       0.33333333       0.66666667 </v>
   <v>       0.50000000       0.34523810       0.65476190 </v>
   <v>       0.50000000       0.35714286       0.64285714 </v>
   <v>       0.50000000       0.36904762       0.63095238 </v>
   <v>       0.50000000       0.38095238       0.61904762 </v>
   <v>       0.50000000       0.39285714       0.60714286 </v>
   <v>       0.50000000       0.40476190       0.59523810 </v>
   <v>       0.50000000       0.41666667       0.58333333 </v>
   <v>       0.50000000       0.42857143       0.57142857 </v>
   <v>       0.50000000       0.44047619       0.55952381 </v>
   <v>       0.50000000       0.45238095       0.54761905 </v>
   <v>       0.50000000       0.46428571       0.53571429 </v>
   <v>       0.50000000       0.47619048       0.52380952 </v>
   <v>       0.50000000       0.48809524       0.51190476 </v>
   <v>       0.50000000       0.50000000       0.50000000 </v>
   <v>       0.50000000       0.50000000       0.50000000 </v>
   <v>       0.49305556       0.49305556       0.51388889 </v>
   <v>       0.48611111       0.48611111       0.52777778 </v>
   <v>       0.47916667       0.47916667       0.54166667 </v>
   <v>       0.47222222       0.47222222       0.55555556 </v>
   <v>       0.46527778       0.46527778       0.56944444 </v>
   <v>       0.45833333       0.45833333       0.58333333 </v>
   <v>       0.45138889       0.45138889       0.59722222 </v>
   <v>       0.44444444       0.44444444       0.61111111 </v>
   <v>       0.43750000       0.43750000       0.62500000 </v>
   <v>       0.43055556       0.43055556       0.63888889 </v>
   <v>       0.42361111       0.42361111       0.65277778 </v>
   <v>       0.41666667       0.41666667       0.66666667 </v>
   <v>       0.40972222       0.40972222       0.68055556 </v>
   <v>       0.40277778       0.40277778       0.69444444 </v>
   <v>       0.39583333       0.39583333       0.70833333 </v>
   <v>       0.38888889       0.38888889       0.72222222 </v>
   <v>       0.38194444       0.38194444       0.73611111 </v>
   <v>       0.37500000       0.37500000       0.75000000 </v>
   <v>       0.62500000       0.25000000       0.62500000 </v>
   <v>       0.61363636       0.22727273       0.61363636 </v>
   <v>       0.60227273       0.20454545       0.60227273 </v>
   <v>       0.59090909       0.18181818       0.59090909 </v>
   <v>       0.57954545       0.15909091       0.57954545 </v>
   <v>       0.56818182       0.13636364       0.56818182 </v>
   <v>       0.55681818       0.11363636       0.55681818 </v>
   <v>       0.54545455       0.09090909       0.54545455 </v>
   <v>       0.53409091       0.06818182       0.53409091 </v>
   <v>       0.52272727       0.04545455       0.52272727 </v>
   <v>       0.51136364       0.02272727       0.51136364 </v>
   <v>       0.50000000      -0.00000000       0.50000000 </v>
  </varray>
  <varray name="weights" >
   <v>       0.00500000 </v>
   <v>       0.00500000 </v>
   <v>       0.00500000 </v>
   <v>       0.00500000 </v>
   <v>       0.00500000 </v>
   <v>       0.00500000 </v>
   <v>       0.00500000 </v>
   <v>       0.00500000 </v>
   <v>       0.00500000 </v>
   <v>       0.00500000 </v>
   <v>       0.00500000 </v>
   <v>       0.00500000 </v>
   <v>       0.00500000 </v>
   <v>       0.00500000 </v>
   <v>       0.00500000 </v>
   <v>       0.00500000 </v>
   <v>       0.00500000 </v>
   <v>       0.00500000 </v>
   <v>       0.00500000 </v>
   <v>       0.00500000 </v>
   <v>       0.00500000 </v>
   <v>       0.00500000 </v>
   <v>       0.00500000 </v>
   <v>       0.00500000 </v>
   <v>       0.00500000 </v>
   <v>       0.00500000 </v>
   <v>       0.00500000 </v>
   <v>       0.00500000 </v>
   <v>       0.00500000 </v>
   <v>       0.00500000 </v>
   <v>       0.00500000 </v>
   <v>       0.00500000 </v>
   <v>       0.00500000 </v>
   <v>       0.00500000 </v>
   <v>       0.00500000 </v>
   <v>       0.00500000 </v>
   <v>       0.00500000 </v>
   <v>       0.00500000 </v>
   <v>       0.00500000 </v>
   <v>       0.00500000 </v>
   <v>       0.00500000 </v>
   <v>       0.00500000 </v>
   <v>       0.00500000 </v>
   <v>       0.00500000 </v>
   <v>       0.00500000 </v>
   <v>       0.00500000 </v>
   <v>       0.00500000 </v>
   <v>       0.00500000 </v>
   <v>       0.00500000 </v>
   <v>       0.00500000 </v>
   <v>       0.00500000 </v>
   <v>       0.00500000 </v>
   <v>       0.00500000 </v>
   <v>       0.00500000 </v>
   <v>       0.00500000 </v>
   <v>       0.00500000 </v>
   <v>       0.00500000 </v>
   <v>       0.00500000 </v>
   <v>       0.00500000 </v>
   <v>       0.00500000 </v>
   <v>       0.00500000 </v>
   <v>       0.00500000 </v>
   <v>       0.00500000 </v>
   <v>       0.00500000 </v>
   <v>       0.00500000 </v>
   <v>       0.00500000 </v>
   <v>       0.00500000 </v>
   <v>       0.00500000 </v>
   <v>       0.00500000 </v>
   <v>       0.00500000 </v>
   <v>       0.00500000 </v>
   <v>       0.00500000 </v>
   <v>       0.00500000 </v>
   <v>       0.00500000 </v>
   <v>       0.00500000 </v>
   <v>       0.00500000 </v>
   <v>       0.00500000 </v>
   <v>       0.00500000 </v>
   <v>       0.00500000 </v>
   <v>       0.00500000 </v>
   <v>       0.00500000 </v>
   <v>       0.00500000 </v>
   <v>       0.00500000 </v>
   <v>       0.00500000 </v>
   <v>       0.00500000 </v>
   <v>       0.00500000 </v>
   <v>       0.00500000 </v>
   <v>       0.00500000 </v>
   <v>       0.00500000 </v>
   <v>       0.00500000 </v>
   <v>       0.00500000 </v>
   <v>       0.00500000 </v>
   <v>       0.00500000 </v>
   <v>       0.00500000 </v>
   <v>       0.00500000 </v>
   <v>       0.00500000 </v>
   <v>       0.00500000 </v>
   <v>       0.00500000 </v>
   <v>       0.00500000 </v>
   <v>       0.00500000 </v>
   <v>       0.00500000 </v>
   <v>       0.00500000 </v>
   <v>       0.00500000 </v>
   <v>       0.00500000 </v>
   <v>       0.00500000 </v>
   <v>       0.00500000 </v>
   <v>       0.00500000 </v>
   <v>       0.00500000 </v>
   <v>       0.00500000 </v>
   <v>       0.00500000 </v>
   <v>       0.00500000 </v>
   <v>       0.00500000 </v>
   <v>       0.00500000 </v>
   <v>       0.00500000 </v>
   <v>       0.00500000 </v>
   <v>       0.00500000 </v>
   <v>       0.00500000 </v>
   <v>       0.00500000 </v>
   <v>       0.00500000 </v>
   <v>       0.00500000 </v>
   <v>       0.00500000 </v>
   <v>       0.00500000 </v>
   <v>       0.00500000 </v>
   <v>       0.00500000 </v>
   <v>       0.00500000 </v>
   <v>       0.00500000 </v>
   <v>       0.00500000 </v>
   <v>       0.00500000 </v>
   <v>       0.00500000 </v>
   <v>       0.00500000 </v>
   <v>       0.00500000 </v>
   <v>       0.00500000 </v>
   <v>       0.00500000 </v>
   <v>       0.00500000 </v>
   <v>       0.00500000 </v>
   <v>       0.00500000 </v>
   <v>       0.00500000 </v>
   <v>       0.00500000 </v>
   <v>       0.00500000 </v>
   <v>       0.00500000 </v>
   <v>       0.00500000 </v>
   <v>       0.00500000 </v>
   <v>       0.00500000 </v>
   <v>       0.00500000 </v>
   <v>       0.00500000 </v>
   <v>       0.00500000 </v>
   <v>       0.00500000 </v>
   <v>       0.00500000 </v>
   <v>       0.00500000 </v>
   <v>       0.00500000 </v>
   <v>       0.00500000 </v>
   <v>       0.00500000 </v>
   <v>       0.00500000 </v>
   <v>       0.00500000 </v>
   <v>       0.00500000 </v>
   <v>       0.00500000 </v>
   <v>       0.00500000 </v>
   <v>       0.00500000 </v>
   <v>       0.00500000 </v>
   <v>       0.00500000 </v>
   <v>       0.00500000 </v>
   <v>       0.00500000 </v>
   <v>       0.00500000 </v>
   <v>       0.00500000 </v>
   <v>       0.00500000 </v>
   <v>       0.00500000 </v>
   <v>       0.00500000 </v>
   <v>       0.00500000 </v>
   <v>       0.00500000 </v>
   <v>       0.00500000 </v>
   <v>       0.00500000 </v>
   <v>       0.00500000 </v>
   <v>       0.00500000 </v>
   <v>       0.00500000 </v>
   <v>       0.00500000 </v>
   <v>       0.00500000 </v>
   <v>       0.00500000 </v>
   <v>       0.00500000 </v>
   <v>       0.00500000 </v>
   <v>       0.00500000 </v>
   <v>       0.00500000 </v>
   <v>       0.00500000 </v>
   <v>       0.00500000 </v>
   <v>       0.00500000 </v>
   <v>       0.00500000 </v>
   <v>       0.00500000 </v>
   <v>       0.00500000 </v>
   <v>       0.00500000 </v>
   <v>       0.00500000 </v>
   <v>       0.00500000 </v>
   <v>       0.00500000 </v>
   <v>       0.00500000 </v>
   <v>       0.00500000 </v>
   <v>       0.00500000 </v>
   <v>       0.00500000 </v>
   <v>       0.00500000 </v>
   <v>       0.00500000 </v>
   <v>       0.00500000 </v>
   <v>       0.00500000 </v>
   <v>       0.00500000 </v>
  </varray>
 </kpoints>
 <parameters>
  <separator name="general" >
   <i type="string" name="SYSTEM">PbTe</i>
   <i type="logical" name="LCOMPAT"> F  </i>
  </separator>
  <separator name="electronic" >
   <i type="string" name="PREC">accura</i>
   <i name="ENMAX">    600.00000000</i>
   <i name="ENAUG">    391.91400000</i>
   <i name="EDIFF">      0.00000010</i>
   <i type="int" name="IALGO">    58</i>
   <i type="int" name="IWAVPR">    10</i>
   <i type="int" name="NBANDS">    28</i>
   <i name="NELECT">     20.00000000</i>
   <i type="int" name="TURBO">     0</i>
   <i type="int" name="IRESTART">     0</i>
   <i type="int" name="NREBOOT">     0</i>
   <i type="int" name="NMIN">     0</i>
   <i name="EREF">      0.00000000</i>
   <separator name="electronic smearing" >
    <i type="int" name="ISMEAR">     0</i>
    <i name="SIGMA">      0.01000000</i>
    <i name="KSPACING">      0.50000000</i>
    <i type="logical" name="KGAMMA"> T  </i>
   </separator>
   <separator name="electronic projectors" >
    <i type="logical" name="LREAL"> F  </i>
    <v name="ROPT">      0.00000000      0.00000000</v>
    <i type="int" name="LMAXPAW">  -100</i>
    <i type="int" name="LMAXMIX">     4</i>
    <i type="logical" name="NLSPLINE"> F  </i>
   </separator>
   <separator name="electronic startup" >
    <i type="int" name="ISTART">     0</i>
    <i type="int" name="ICHARG">    11</i>
    <i type="int" name="INIWAV">     1</i>
   </separator>
   <separator name="electronic spin" >
    <i type="int" name="ISPIN">     1</i>
    <i type="logical" name="LNONCOLLINEAR"> T  </i>
    <v name="MAGMOM">      1.00000000      1.00000000      1.00000000      1.00000000      1.00000000      1.00000000</v>
    <i name="NUPDOWN">     -1.00000000</i>
    <i type="logical" name="LSORBIT"> T  </i>
    <v name="SAXIS">      0.00000000      0.00000000      1.00000000</v>
    <i type="logical" name="LSPIRAL"> F  </i>
    <v name="QSPIRAL">      0.00000000      0.00000000      0.00000000</v>
    <i type="logical" name="LZEROZ"> F  </i>
   </separator>
   <separator name="electronic exchange-correlation" >
    <i type="logical" name="LASPH"> F  </i>
    <i type="logical" name="LMETAGGA"> F  </i>
   </separator>
   <separator name="electronic convergence" >
    <i type="int" name="NELM">    60</i>
    <i type="int" name="NELMDL">     0</i>
    <i type="int" name="NELMIN">     2</i>
    <i name="ENINI">    600.00000000</i>
    <separator name="electronic convergence detail" >
     <i type="logical" name="LDIAG"> T  </i>
     <i type="logical" name="LSUBROT"> F  </i>
     <i name="WEIMIN">      0.00000000</i>
     <i name="EBREAK">      0.00000000</i>
     <i name="DEPER">      0.30000000</i>
     <i type="int" name="NRMM">     4</i>
     <i name="TIME">      0.40000000</i>
    </separator>
   </separator>
   <separator name="electronic mixer" >
    <i name="AMIX">      0.40000000</i>
    <i name="BMIX">      1.00000000</i>
    <i name="AMIN">      0.10000000</i>
    <i name="AMIX_MAG">      1.60000000</i>
    <i name="BMIX_MAG">      1.00000000</i>
    <separator name="electronic mixer details" >
     <i type="int" name="IMIX">     4</i>
     <i type="logical" name="MIXFIRST"> F  </i>
     <i type="int" name="MAXMIX">   -45</i>
     <i name="WC">    100.00000000</i>
     <i type="int" name="INIMIX">     1</i>
     <i type="int" name="MIXPRE">     1</i>
     <i type="int" name="MREMOVE">     5</i>
    </separator>
   </separator>
   <separator name="electronic dipolcorrection" >
    <i type="logical" name="LDIPOL"> F  </i>
    <i type="logical" name="LMONO"> F  </i>
    <i type="int" name="IDIPOL">     0</i>
    <i name="EPSILON">      1.00000000</i>
    <v name="DIPOL">   -100.00000000   -100.00000000   -100.00000000</v>
    <i name="EFIELD">      0.00000000</i>
   </separator>
  </separator>
  <separator name="grids" >
   <i type="int" name="NGX">    40</i>
   <i type="int" name="NGY">    40</i>
   <i type="int" name="NGZ">    40</i>
   <i type="int" name="NGXF">    80</i>
   <i type="int" name="NGYF">    80</i>
   <i type="int" name="NGZF">    80</i>
   <i type="logical" name="ADDGRID"> T  </i>
  </separator>
  <separator name="ionic" >
   <i type="int" name="NSW">     0</i>
   <i type="int" name="IBRION">    -1</i>
   <i type="int" name="MDALGO">     0</i>
   <i type="int" name="ISIF">     2</i>
   <i name="PSTRESS">      0.00000000</i>
   <i name="EDIFFG">     -0.00100000</i>
   <i type="int" name="NFREE">     0</i>
   <i name="POTIM">      0.50000000</i>
   <i name="SMASS">     -3.00000000</i>
   <i name="SCALEE">      1.00000000</i>
  </separator>
  <separator name="ionic md" >
   <i name="TEBEG">      0.00010000</i>
   <i name="TEEND">      0.00010000</i>
   <i type="int" name="NBLOCK">     1</i>
   <i type="int" name="KBLOCK">     1</i>
   <i type="int" name="NPACO">   256</i>
   <i name="APACO">     16.00000000</i>
  </separator>
  <separator name="symmetry" >
   <i type="int" name="ISYM">    -1</i>
   <i name="SYMPREC">      0.00001000</i>
  </separator>
  <separator name="dos" >
   <i type="int" name="LORBIT">     0</i>
   <v name="RWIGS">     -1.00000000     -1.00000000</v>
   <i type="int" name="NEDOS">   301</i>
   <i name="EMIN">     10.00000000</i>
   <i name="EMAX">    -10.00000000</i>
   <i name="EFERMI">      0.00000000</i>
  </separator>
  <separator name="writing" >
   <i type="int" name="NWRITE">     2</i>
   <i type="logical" name="LWAVE"> F  </i>
   <i type="logical" name="LDOWNSAMPLE"> F  </i>
   <i type="logical" name="LCHARG"> F  </i>
   <i type="logical" name="LPARD"> F  </i>
   <i type="logical" name="LVTOT"> F  </i>
   <i type="logical" name="LVHAR"> F  </i>
   <i type="logical" name="LELF"> F  </i>
   <i type="logical" name="LOPTICS"> F  </i>
   <v name="STM">      0.00000000      0.00000000      0.00000000      0.00000000      0.00000000      0.00000000      0.00000000</v>
  </separator>
  <separator name="performance" >
   <i type="int" name="NPAR">     4</i>
   <i type="int" name="NSIM">     4</i>
   <i type="int" name="NBLK">    -1</i>
   <i type="logical" name="LPLANE"> T  </i>
   <i type="logical" name="LSCALAPACK"> T  </i>
   <i type="logical" name="LSCAAWARE"> F  </i>
   <i type="logical" name="LSCALU"> F  </i>
   <i type="logical" name="LASYNC"> F  </i>
   <i type="logical" name="LORBITALREAL"> F  </i>
  </separator>
  <separator name="miscellaneous" >
   <i type="int" name="IDIOT">     3</i>
   <i type="int" name="ISPECIAL">     0</i>
   <i type="logical" name="LMUSIC"> F  </i>
   <v name="POMASS">    127.60000000    207.20000000</v>
   <v name="DARWINR">      0.00000000      0.00000000</v>
   <v name="DARWINV">      1.00000000      1.00000000</v>
   <i type="logical" name="LCORR"> T  </i>
  </separator>
  <i type="logical" name="GGA_COMPAT"> F  </i>
  <i type="logical" name="LBERRY"> F  </i>
  <i type="int" name="ICORELEVEL">     0</i>
  <i type="logical" name="LDAU"> F  </i>
  <i type="int" name="I_CONSTRAINED_M">     0</i>
  <separator name="electronic exchange-correlation" >
   <i type="string" name="GGA">--</i>
   <i type="int" name="VOSKOWN">     0</i>
   <i type="logical" name="LHFCALC"> F  </i>
   <i type="string" name="PRECFOCK"></i>
   <i type="logical" name="LSYMGRAD"> F  </i>
   <i type="logical" name="LHFONE"> F  </i>
   <i type="logical" name="LRHFCALC"> F  </i>
   <i type="logical" name="LTHOMAS"> F  </i>
   <i type="logical" name="LMODELHF"> F  </i>
   <i name="ENCUT4O">     -1.00000000</i>
   <i type="int" name="EXXOEP">     0</i>
   <i type="int" name="FOURORBIT">     0</i>
   <i name="AEXX">      0.00000000</i>
   <i name="HFALPHA">      0.00000000</i>
   <i name="MCALPHA">      0.00000000</i>
   <i name="ALDAX">      1.00000000</i>
   <i name="AGGAX">      1.00000000</i>
   <i name="ALDAC">      1.00000000</i>
   <i name="AGGAC">      1.00000000</i>
   <i type="int" name="NKREDX">     1</i>
   <i type="int" name="NKREDY">     1</i>
   <i type="int" name="NKREDZ">     1</i>
   <i type="logical" name="SHIFTRED"> F  </i>
   <i type="logical" name="ODDONLY"> F  </i>
   <i type="logical" name="EVENONLY"> F  </i>
   <i type="int" name="LMAXFOCK">     0</i>
   <i type="int" name="NMAXFOCKAE">     0</i>
   <i type="logical" name="LFOCKAEDFT"> F  </i>
   <i name="HFSCREEN">      0.00000000</i>
   <i name="HFSCREENC">      0.00000000</i>
   <i type="int" name="NBANDSGWLOW">     0</i>
  </separator>
  <separator name="vdW DFT" >
   <i type="logical" name="LUSE_VDW"> F  </i>
   <i name="Zab_VDW">     -0.84910000</i>
   <i name="PARAM1">      0.12340000</i>
   <i name="PARAM2">      1.00000000</i>
   <i name="PARAM3">      0.00000000</i>
  </separator>
  <separator name="model GW" >
   <i type="int" name="MODEL_GW">     0</i>
   <i name="MODEL_EPS0">     21.31997541</i>
   <i name="MODEL_ALPHA">      1.00000000</i>
  </separator>
  <separator name="linear response parameters" >
   <i type="logical" name="LEPSILON"> F  </i>
   <i type="logical" name="LRPA"> F  </i>
   <i type="logical" name="LNABLA"> F  </i>
   <i type="logical" name="LVEL"> F  </i>
   <i type="int" name="KINTER">     0</i>
   <i name="CSHIFT">      0.10000000</i>
   <i name="OMEGAMAX">     -1.00000000</i>
   <i name="DEG_THRESHOLD">      0.00200000</i>
   <i name="RTIME">     -0.10000000</i>
   <i name="WPLASMAI">      0.00000000</i>
   <v name="DFIELD">      0.00000000      0.00000000      0.00000000</v>
   <v name="WPLASMA">      0.00000000      0.00000000      0.00000000      0.00000000      0.00000000      0.00000000      0.00000000      0.00000000      0.00000000</v>
  </separator>
  <separator name="orbital magnetization" >
   <i type="logical" name="NUCIND"> F  </i>
   <v name="MAGPOS">      0.00000000      0.00000000      0.00000000</v>
   <i type="logical" name="LNICSALL"> T  </i>
   <i type="logical" name="ORBITALMAG"> F  </i>
   <i type="logical" name="LMAGBLOCH"> F  </i>
   <i type="logical" name="LCHIMAG"> F  </i>
   <i type="logical" name="LGAUGE"> T  </i>
   <i type="int" name="MAGATOM">     0</i>
   <v name="MAGDIPOL">      0.00000000      0.00000000      0.00000000</v>
   <v name="AVECCONST">      0.00000000      0.00000000      0.00000000</v>
  </separator>
  <separator name="response functions" >
   <i type="logical" name="LADDER"> F  </i>
   <i type="logical" name="LRPAFORCE"> F  </i>
   <i type="logical" name="LFXC"> F  </i>
   <i type="logical" name="LHARTREE"> T  </i>
   <i type="int" name="IBSE">     0</i>
   <v type="int" name="KPOINT">    -1     0     0     0</v>
   <i type="logical" name="LTCTE"> F  </i>
   <i type="logical" name="LTETE"> F  </i>
   <i type="logical" name="LTRIPLET"> F  </i>
   <i type="logical" name="LFXCEPS"> F  </i>
   <i type="logical" name="LFXHEG"> F  </i>
   <i type="int" name="NATURALO">     2</i>
   <i type="logical" name="L2ORDER"> F  </i>
   <i type="logical" name="LMP2LT"> F  </i>
   <i type="logical" name="LUSEW"> F  </i>
   <i name="ENCUTGW">     -2.00000000</i>
   <i name="ENCUTGWSOFT">     -2.00000000</i>
   <i name="ENCUTLF">     -1.00000000</i>
   <i type="int" name="LMAXMP2">    -1</i>
   <i name="SCISSOR">      0.00000000</i>
   <i type="int" name="NOMEGA">     0</i>
   <i type="int" name="NOMEGAR">     0</i>
   <i type="int" name="NBANDSGW">    -1</i>
   <i type="int" name="NBANDSO">    -1</i>
   <i type="int" name="NBANDSV">    -1</i>
   <i type="int" name="NELM">     1</i>
   <i type="int" name="NELMHF">     1</i>
   <i type="int" name="DIM">     3</i>
   <i type="int" name="ANTIRES">     0</i>
   <i name="OMEGAMAX">    -30.00000000</i>
   <i name="OMEGAMIN">    -30.00000000</i>
   <i name="OMEGATL">   -200.00000000</i>
   <i type="int" name="OMEGAGRID">   140</i>
   <i name="CSHIFT">     -0.10000000</i>
   <i type="logical" name="SELFENERGY"> F  </i>
   <i type="logical" name="LSPECTRAL"> F  </i>
   <i type="logical" name="LSPECTRALGW"> F  </i>
   <i type="logical" name="LSINGLES"> F  </i>
   <i type="logical" name="LFERMIGW"> F  </i>
   <i type="logical" name="ODDONLYGW"> F  </i>
   <i type="logical" name="EVENONLYGW"> F  </i>
   <i type="int" name="NKREDLFX">     1</i>
   <i type="int" name="NKREDLFY">     1</i>
   <i type="int" name="NKREDLFZ">     1</i>
   <i type="int" name="MAXMEM">  2800</i>
   <i type="int" name="TELESCOPE">     0</i>
   <i type="int" name="TAUPAR">     1</i>
   <i type="int" name="OMEGAPAR">    -1</i>
   <i name="LAMBDA">      1.00000000</i>
  </separator>
  <separator name="External order field" >
   <i name="OFIELD_KAPPA">      0.00000000</i>
   <v name="OFIELD_K">      0.00000000      0.00000000      0.00000000</v>
   <i name="OFIELD_Q6_NEAR">      0.00000000</i>
   <i name="OFIELD_Q6_FAR">      0.00000000</i>
   <i name="OFIELD_A">      0.00000000</i>
  </separator>
 </parameters>
 <atominfo>
  <atoms>       2 </atoms>
  <types>       2 </types>
  <array name="atoms" >
   <dimension dim="1">ion</dimension>
   <field type="string">element</field>
   <field type="int">atomtype</field>
   <set>
    <rc><c>Te</c><c>   1</c></rc>
    <rc><c>Pb</c><c>   2</c></rc>
   </set>
  </array>
  <array name="atomtypes" >
   <dimension dim="1">type</dimension>
   <field type="int">atomspertype</field>
   <field type="string">element</field>
   <field>mass</field>
   <field>valence</field>
   <field type="string">pseudopotential</field>
   <set>
    <rc><c>   1</c><c>Te</c><c>    127.60000000</c><c>      6.00000000</c><c>  PAW_PBE Te 08Apr2002                  </c></rc>
    <rc><c>   1</c><c>Pb</c><c>    207.20000000</c><c>     14.00000000</c><c>  PAW_PBE Pb_d 06Sep2000                </c></rc>
   </set>
  </array>
 </atominfo>
 <structure name="initialpos" >
  <crystal>
   <varray name="basis" >
    <v>       0.00000000       3.28759630       3.28759630 </v>
    <v>       3.28759630       0.00000000       3.28759630 </v>
    <v>       3.28759630       3.28759630       0.00000000 </v>
   </varray>
   <i name="volume">     71.06658469 </i>
   <varray name="rec_basis" >
    <v>      -0.15208680       0.15208680       0.15208680 </v>
    <v>       0.15208680      -0.15208680       0.15208680 </v>
    <v>       0.15208680       0.15208680      -0.15208680 </v>
   </varray>
  </crystal>
  <varray name="positions" >
   <v>       0.00000000       0.00000000       0.00000000 </v>
   <v>       0.50000000       0.50000000       0.50000000 </v>
  </varray>
 </structure>
 <calculation>
  <scstep>
   <time name="total">  262.09  332.61</time>
   <energy>
    <i name="alphaZ">     34.19906358 </i>
    <i name="ewald">  -1365.21656973 </i>
    <i name="hartreedc">   -514.10013634 </i>
    <i name="XCdc">      9.70509675 </i>
    <i name="pawpsdc">   1876.14714542 </i>
    <i name="pawaedc">  -1820.84473102 </i>
    <i name="eentropy">     -0.00007177 </i>
    <i name="bandstr">     93.84621475 </i>
    <i name="atom">   1884.88874340 </i>
    <i name="e_fr_energy">    198.62475504 </i>
    <i name="e_wo_entrp">    198.62482680 </i>
    <i name="e_0_energy">    198.62479092 </i>
   </energy>
  </scstep>
  <scstep>
   <time name="total">  277.78  316.71</time>
   <energy>
    <i name="e_fr_energy">     12.06515072 </i>
    <i name="e_wo_entrp">     12.06519311 </i>
    <i name="e_0_energy">     12.06517191 </i>
   </energy>
  </scstep>
  <scstep>
   <time name="total">  260.18  327.01</time>
   <energy>
    <i name="e_fr_energy">     -7.06047784 </i>
    <i name="e_wo_entrp">     -7.06041868 </i>
    <i name="e_0_energy">     -7.06044826 </i>
   </energy>
  </scstep>
  <scstep>
   <time name="total">   78.66   88.07</time>
   <energy>
    <i name="e_fr_energy">     -7.90733592 </i>
    <i name="e_wo_entrp">     -7.90733592 </i>
    <i name="e_0_energy">     -7.90733592 </i>
   </energy>
  </scstep>
  <scstep>
   <time name="total">  150.72  172.66</time>
   <energy>
    <i name="e_fr_energy">     -7.94530326 </i>
    <i name="e_wo_entrp">     -7.94530326 </i>
    <i name="e_0_energy">     -7.94530326 </i>
   </energy>
  </scstep>
  <scstep>
   <time name="total">  270.27  473.09</time>
   <energy>
    <i name="e_fr_energy">     -7.94530326 </i>
    <i name="e_wo_entrp">     -7.94530326 </i>
    <i name="e_0_energy">     -7.94530326 </i>
   </energy>
  </scstep>
  <scstep>
   <time name="total">  320.59  557.86</time>
   <energy>
    <i name="e_fr_energy">     -7.94580648 </i>
    <i name="e_wo_entrp">     -7.94580648 </i>
    <i name="e_0_energy">     -7.94580648 </i>
   </energy>
  </scstep>
  <scstep>
   <time name="total">   43.02   50.00</time>
   <energy>
    <i name="e_fr_energy">     -7.94600515 </i>
    <i name="e_wo_entrp">     -7.94600515 </i>
    <i name="e_0_energy">     -7.94600515 </i>
   </energy>
  </scstep>
  <scstep>
   <time name="total">   26.70   32.79</time>
   <energy>
    <i name="e_fr_energy">     -7.94607173 </i>
    <i name="e_wo_entrp">     -7.94607173 </i>
    <i name="e_0_energy">     -7.94607173 </i>
   </energy>
  </scstep>
  <scstep>
   <time name="total">   33.03   39.64</time>
   <energy>
    <i name="e_fr_energy">     -7.94609300 </i>
    <i name="e_wo_entrp">     -7.94609300 </i>
    <i name="e_0_energy">     -7.94609300 </i>
   </energy>
  </scstep>
  <scstep>
   <time name="total">   31.48   35.36</time>
   <energy>
    <i name="e_fr_energy">     -7.94609754 </i>
    <i name="e_wo_entrp">     -7.94609754 </i>
    <i name="e_0_energy">     -7.94609754 </i>
   </energy>
  </scstep>
  <scstep>
   <time name="total">   41.36   45.57</time>
   <energy>
    <i name="e_fr_energy">     -7.94609873 </i>
    <i name="e_wo_entrp">     -7.94609873 </i>
    <i name="e_0_energy">     -7.94609873 </i>
   </energy>
  </scstep>
  <scstep>
   <time name="total">   83.83   95.72</time>
   <energy>
    <i name="e_fr_energy">     -7.94609908 </i>
    <i name="e_wo_entrp">     -7.94609908 </i>
    <i name="e_0_energy">     -7.94609908 </i>
   </energy>
  </scstep>
  <scstep>
   <time name="total">   53.59   60.27</time>
   <energy>
    <i name="alphaZ">     34.19906358 </i>
    <i name="ewald">  -1365.21656973 </i>
    <i name="hartreedc">   -514.10013634 </i>
    <i name="XCdc">      9.70509675 </i>
    <i name="pawpsdc">   1876.14714542 </i>
    <i name="pawaedc">  -1820.84473102 </i>
    <i name="eentropy">     -0.00000000 </i>
    <i name="bandstr">   -112.72471121 </i>
    <i name="atom">   1884.88874340 </i>
    <i name="e_fr_energy">     -7.94609915 </i>
    <i name="e_wo_entrp">     -7.94609915 </i>
    <i name="e_0_energy">     -7.94609915 </i>
   </energy>
  </scstep>
  <structure>
   <crystal>
    <varray name="basis" >
     <v>       0.00000000       3.28759630       3.28759630 </v>
     <v>       3.28759630       0.00000000       3.28759630 </v>
     <v>       3.28759630       3.28759630       0.00000000 </v>
    </varray>
    <i name="volume">     71.06658469 </i>
    <varray name="rec_basis" >
     <v>      -0.15208680       0.15208680       0.15208680 </v>
     <v>       0.15208680      -0.15208680       0.15208680 </v>
     <v>       0.15208680       0.15208680      -0.15208680 </v>
    </varray>
   </crystal>
   <varray name="positions" >
    <v>       0.00000000       0.00000000       0.00000000 </v>
    <v>       0.50000000       0.50000000       0.50000000 </v>
   </varray>
  </structure>
  <varray name="forces" >
   <v>       0.00000155      -0.00000165      -0.00000080 </v>
   <v>      -0.00000155       0.00000165       0.00000080 </v>
  </varray>
  <varray name="stress" >
   <v>     119.44945697     -54.84444691     -43.16730612 </v>
   <v>     -54.84445015     -39.37178250     -26.07270663 </v>
   <v>     -43.16730652     -26.07270502     -52.16295482 </v>
  </varray>
  <energy>
   <i name="e_fr_energy">     -7.94609915 </i>
   <i name="e_wo_entrp">     -7.94609915 </i>
   <i name="e_0_energy">     -0.00000000 </i>
  </energy>
  <time name="totalsc"> 1970.88 2669.44</time>
  <eigenvalues>
   <array>
    <dimension dim="1">band</dimension>
    <dimension dim="2">kpoint</dimension>
    <dimension dim="3">spin</dimension>
    <field>eigene</field>
    <field>occ</field>
    <set>
     <set comment="spin 1">
      <set comment="kpoint 1">
       <r>  -13.0996    1.0000 </r>
       <r>  -13.0996    1.0000 </r>
       <r>  -13.0996    1.0000 </r>
       <r>  -13.0996    1.0000 </r>
       <r>  -10.5437    1.0000 </r>
       <r>  -10.5437    1.0000 </r>
       <r>  -10.5437    1.0000 </r>
       <r>  -10.5437    1.0000 </r>
       <r>  -10.5371    1.0000 </r>
       <r>  -10.5371    1.0000 </r>
       <r>   -6.6444    1.0000 </r>
       <r>   -6.6444    1.0000 </r>
       <r>   -0.7179    1.0000 </r>
       <r>   -0.7179    1.0000 </r>
       <r>    3.0747    1.0000 </r>
       <r>    3.0747    1.0000 </r>
       <r>    4.1096    1.0000 </r>
       <r>    4.1096    1.0000 </r>
       <r>    4.1096    1.0000 </r>
       <r>    4.1096    1.0000 </r>
       <r>    7.6465    0.0000 </r>
       <r>    7.6465    0.0000 </r>
       <r>    9.5941    0.0000 </r>
       <r>    9.5942    0.0000 </r>
       <r>    9.5942    0.0000 </r>
       <r>    9.5945    0.0000 </r>
       <r>   10.8509    0.0000 </r>
       <r>   10.8613    0.0000 </r>
      </set>
      <set comment="kpoint 2">
       <r>  -13.0996    1.0000 </r>
       <r>  -13.0996    1.0000 </r>
       <r>  -13.0996    1.0000 </r>
       <r>  -13.0996    1.0000 </r>
       <r>  -10.5437    1.0000 </r>
       <r>  -10.5437    1.0000 </r>
       <r>  -10.5436    1.0000 </r>
       <r>  -10.5436    1.0000 </r>
       <r>  -10.5370    1.0000 </r>
       <r>  -10.5370    1.0000 </r>
       <r>   -6.6413    1.0000 </r>
       <r>   -6.6413    1.0000 </r>
       <r>   -0.7281    1.0000 </r>
       <r>   -0.7280    1.0000 </r>
       <r>    3.0778    1.0000 </r>
       <r>    3.0778    1.0000 </r>
       <r>    4.1045    1.0000 </r>
       <r>    4.1045    1.0000 </r>
       <r>    4.1191    1.0000 </r>
       <r>    4.1191    1.0000 </r>
       <r>    7.6335    0.0000 </r>
       <r>    7.6335    0.0000 </r>
       <r>    9.5473    0.0000 </r>
       <r>    9.5474    0.0000 </r>
       <r>    9.5915    0.0000 </r>
       <r>    9.5916    0.0000 </r>
       <r>   10.8452    0.0000 </r>
       <r>   10.8876    0.0000 </r>
      </set>
      <set comment="kpoint 3">
       <r>  -13.0996    1.0000 </r>
       <r>  -13.0996    1.0000 </r>
       <r>  -13.0996    1.0000 </r>
       <r>  -13.0996    1.0000 </r>
       <r>  -10.5438    1.0000 </r>
       <r>  -10.5438    1.0000 </r>
       <r>  -10.5436    1.0000 </r>
       <r>  -10.5436    1.0000 </r>
       <r>  -10.5369    1.0000 </r>
       <r>  -10.5369    1.0000 </r>
       <r>   -6.6319    1.0000 </r>
       <r>   -6.6319    1.0000 </r>
       <r>   -0.7578    1.0000 </r>
       <r>   -0.7578    1.0000 </r>
       <r>    3.0858    1.0000 </r>
       <r>    3.0858    1.0000 </r>
       <r>    4.0892    1.0000 </r>
       <r>    4.0892    1.0000 </r>
       <r>    4.1482    1.0000 </r>
       <r>    4.1482    1.0000 </r>
       <r>    7.5931    0.0000 </r>
       <r>    7.5931    0.0000 </r>
       <r>    9.4225    0.0000 </r>
       <r>    9.4229    0.0000 </r>
       <r>    9.5848    0.0000 </r>
       <r>    9.5849    0.0000 </r>
       <r>   10.8061    0.0000 </r>
       <r>   10.8856    0.0000 </r>
      </set>
      <set comment="kpoint 4">
       <r>  -13.0996    1.0000 </r>
       <r>  -13.0996    1.0000 </r>
       <r>  -13.0995    1.0000 </r>
       <r>  -13.0995    1.0000 </r>
       <r>  -10.5440    1.0000 </r>
       <r>  -10.5440    1.0000 </r>
       <r>  -10.5435    1.0000 </r>
       <r>  -10.5435    1.0000 </r>
       <r>  -10.5367    1.0000 </r>
       <r>  -10.5367    1.0000 </r>
       <r>   -6.6162    1.0000 </r>
       <r>   -6.6162    1.0000 </r>
       <r>   -0.8054    1.0000 </r>
       <r>   -0.8054    1.0000 </r>
       <r>    3.0945    1.0000 </r>
       <r>    3.0945    1.0000 </r>
       <r>    4.0642    1.0000 </r>
       <r>    4.0642    1.0000 </r>
       <r>    4.1985    1.0000 </r>
       <r>    4.1985    1.0000 </r>
       <r>    7.5211    0.0000 </r>
       <r>    7.5211    0.0000 </r>
       <r>    9.2553    0.0000 </r>
       <r>    9.2553    0.0000 </r>
       <r>    9.5761    0.0000 </r>
       <r>    9.5765    0.0000 </r>
       <r>   10.6978    0.0000 </r>
       <r>   10.7425    0.0000 </r>
      </set>
      <set comment="kpoint 5">
       <r>  -13.0996    1.0000 </r>
       <r>  -13.0996    1.0000 </r>
       <r>  -13.0995    1.0000 </r>
       <r>  -13.0995    1.0000 </r>
       <r>  -10.5444    1.0000 </r>
       <r>  -10.5444    1.0000 </r>
       <r>  -10.5433    1.0000 </r>
       <r>  -10.5433    1.0000 </r>
       <r>  -10.5364    1.0000 </r>
       <r>  -10.5364    1.0000 </r>
       <r>   -6.5944    1.0000 </r>
       <r>   -6.5944    1.0000 </r>
       <r>   -0.8684    1.0000 </r>
       <r>   -0.8684    1.0000 </r>
       <r>    3.0990    1.0000 </r>
       <r>    3.0991    1.0000 </r>
       <r>    4.0299    1.0000 </r>
       <r>    4.0299    1.0000 </r>
       <r>    4.2712    1.0000 </r>
       <r>    4.2712    1.0000 </r>
       <r>    7.4123    0.0000 </r>
       <r>    7.4123    0.0000 </r>
       <r>    9.0820    0.0000 </r>
       <r>    9.0820    0.0000 </r>
       <r>    9.5685    0.0000 </r>
       <r>    9.5686    0.0000 </r>
       <r>   10.5624    0.0000 </r>
       <r>   10.6592    0.0000 </r>
      </set>
      <set comment="kpoint 6">
       <r>  -13.0996    1.0000 </r>
       <r>  -13.0996    1.0000 </r>
       <r>  -13.0994    1.0000 </r>
       <r>  -13.0994    1.0000 </r>
       <r>  -10.5448    1.0000 </r>
       <r>  -10.5448    1.0000 </r>
       <r>  -10.5432    1.0000 </r>
       <r>  -10.5432    1.0000 </r>
       <r>  -10.5361    1.0000 </r>
       <r>  -10.5361    1.0000 </r>
       <r>   -6.5663    1.0000 </r>
       <r>   -6.5663    1.0000 </r>
       <r>   -0.9440    1.0000 </r>
       <r>   -0.9440    1.0000 </r>
       <r>    3.0951    1.0000 </r>
       <r>    3.0951    1.0000 </r>
       <r>    3.9871    1.0000 </r>
       <r>    3.9871    1.0000 </r>
       <r>    4.3647    1.0000 </r>
       <r>    4.3647    1.0000 </r>
       <r>    7.2646    0.0000 </r>
       <r>    7.2646    0.0000 </r>
       <r>    8.9299    0.0000 </r>
       <r>    8.9299    0.0000 </r>
       <r>    9.5650    0.0000 </r>
       <r>    9.5650    0.0000 </r>
       <r>   10.4308    0.0000 </r>
       <r>   10.4328    0.0000 </r>
      </set>
      <set comment="kpoint 7">
       <r>  -13.0996    1.0000 </r>
       <r>  -13.0996    1.0000 </r>
       <r>  -13.0993    1.0000 </r>
       <r>  -13.0993    1.0000 </r>
       <r>  -10.5453    1.0000 </r>
       <r>  -10.5453    1.0000 </r>
       <r>  -10.5431    1.0000 </r>
       <r>  -10.5431    1.0000 </r>
       <r>  -10.5356    1.0000 </r>
       <r>  -10.5356    1.0000 </r>
       <r>   -6.5323    1.0000 </r>
       <r>   -6.5323    1.0000 </r>
       <r>   -1.0290    1.0000 </r>
       <r>   -1.0290    1.0000 </r>
       <r>    3.0803    1.0000 </r>
       <r>    3.0803    1.0000 </r>
       <r>    3.9367    1.0000 </r>
       <r>    3.9367    1.0000 </r>
       <r>    4.4734    1.0000 </r>
       <r>    4.4734    1.0000 </r>
       <r>    7.0839    0.0000 </r>
       <r>    7.0839    0.0000 </r>
       <r>    8.8134    0.0000 </r>
       <r>    8.8134    0.0000 </r>
       <r>    9.5676    0.0000 </r>
       <r>    9.5676    0.0000 </r>
       <r>   10.2925    0.0000 </r>
       <r>   10.2927    0.0000 </r>
      </set>
      <set comment="kpoint 8">
       <r>  -13.0996    1.0000 </r>
       <r>  -13.0996    1.0000 </r>
       <r>  -13.0992    1.0000 </r>
       <r>  -13.0992    1.0000 </r>
       <r>  -10.5460    1.0000 </r>
       <r>  -10.5460    1.0000 </r>
       <r>  -10.5429    1.0000 </r>
       <r>  -10.5429    1.0000 </r>
       <r>  -10.5350    1.0000 </r>
       <r>  -10.5350    1.0000 </r>
       <r>   -6.4923    1.0000 </r>
       <r>   -6.4923    1.0000 </r>
       <r>   -1.1206    1.0000 </r>
       <r>   -1.1206    1.0000 </r>
       <r>    3.0541    1.0000 </r>
       <r>    3.0541    1.0000 </r>
       <r>    3.8796    1.0000 </r>
       <r>    3.8796    1.0000 </r>
       <r>    4.5852    1.0000 </r>
       <r>    4.5852    1.0000 </r>
       <r>    6.8876    0.0000 </r>
       <r>    6.8876    0.0000 </r>
       <r>    8.7348    0.0000 </r>
       <r>    8.7348    0.0000 </r>
       <r>    9.5779    0.0000 </r>
       <r>    9.5779    0.0000 </r>
       <r>   10.1534    0.0000 </r>
       <r>   10.1534    0.0000 </r>
      </set>
      <set comment="kpoint 9">
       <r>  -13.0996    1.0000 </r>
       <r>  -13.0996    1.0000 </r>
       <r>  -13.0990    1.0000 </r>
       <r>  -13.0990    1.0000 </r>
       <r>  -10.5468    1.0000 </r>
       <r>  -10.5468    1.0000 </r>
       <r>  -10.5428    1.0000 </r>
       <r>  -10.5428    1.0000 </r>
       <r>  -10.5344    1.0000 </r>
       <r>  -10.5344    1.0000 </r>
       <r>   -6.4464    1.0000 </r>
       <r>   -6.4464    1.0000 </r>
       <r>   -1.2162    1.0000 </r>
       <r>   -1.2162    1.0000 </r>
       <r>    3.0175    1.0000 </r>
       <r>    3.0175    1.0000 </r>
       <r>    3.8169    1.0000 </r>
       <r>    3.8169    1.0000 </r>
       <r>    4.6793    1.0000 </r>
       <r>    4.6793    1.0000 </r>
       <r>    6.7044    0.0000 </r>
       <r>    6.7044    0.0000 </r>
       <r>    8.6898    0.0000 </r>
       <r>    8.6898    0.0000 </r>
       <r>    9.5968    0.0000 </r>
       <r>    9.5968    0.0000 </r>
       <r>   10.0157    0.0000 </r>
       <r>   10.0157    0.0000 </r>
      </set>
      <set comment="kpoint 10">
       <r>  -13.0997    1.0000 </r>
       <r>  -13.0997    1.0000 </r>
       <r>  -13.0989    1.0000 </r>
       <r>  -13.0989    1.0000 </r>
       <r>  -10.5477    1.0000 </r>
       <r>  -10.5477    1.0000 </r>
       <r>  -10.5426    1.0000 </r>
       <r>  -10.5426    1.0000 </r>
       <r>  -10.5336    1.0000 </r>
       <r>  -10.5336    1.0000 </r>
       <r>   -6.3950    1.0000 </r>
       <r>   -6.3950    1.0000 </r>
       <r>   -1.3135    1.0000 </r>
       <r>   -1.3135    1.0000 </r>
       <r>    2.9720    1.0000 </r>
       <r>    2.9720    1.0000 </r>
       <r>    3.7497    1.0000 </r>
       <r>    3.7497    1.0000 </r>
       <r>    4.7246    1.0000 </r>
       <r>    4.7246    1.0000 </r>
       <r>    6.5729    0.0000 </r>
       <r>    6.5729    0.0000 </r>
       <r>    8.6720    0.0000 </r>
       <r>    8.6720    0.0000 </r>
       <r>    9.6246    0.0000 </r>
       <r>    9.6246    0.0000 </r>
       <r>    9.8811    0.0000 </r>
       <r>    9.8811    0.0000 </r>
      </set>
      <set comment="kpoint 11">
       <r>  -13.0997    1.0000 </r>
       <r>  -13.0997    1.0000 </r>
       <r>  -13.0987    1.0000 </r>
       <r>  -13.0987    1.0000 </r>
       <r>  -10.5488    1.0000 </r>
       <r>  -10.5488    1.0000 </r>
       <r>  -10.5425    1.0000 </r>
       <r>  -10.5425    1.0000 </r>
       <r>  -10.5328    1.0000 </r>
       <r>  -10.5328    1.0000 </r>
       <r>   -6.3382    1.0000 </r>
       <r>   -6.3382    1.0000 </r>
       <r>   -1.4105    1.0000 </r>
       <r>   -1.4105    1.0000 </r>
       <r>    2.9195    1.0000 </r>
       <r>    2.9195    1.0000 </r>
       <r>    3.6790    1.0000 </r>
       <r>    3.6790    1.0000 </r>
       <r>    4.6878    1.0000 </r>
       <r>    4.6878    1.0000 </r>
       <r>    6.5317    0.0000 </r>
       <r>    6.5317    0.0000 </r>
       <r>    8.6758    0.0000 </r>
       <r>    8.6758    0.0000 </r>
       <r>    9.6610    0.0000 </r>
       <r>    9.6610    0.0000 </r>
       <r>    9.7512    0.0000 </r>
       <r>    9.7512    0.0000 </r>
      </set>
      <set comment="kpoint 12">
       <r>  -13.0998    1.0000 </r>
       <r>  -13.0998    1.0000 </r>
       <r>  -13.0985    1.0000 </r>
       <r>  -13.0985    1.0000 </r>
       <r>  -10.5500    1.0000 </r>
       <r>  -10.5500    1.0000 </r>
       <r>  -10.5424    1.0000 </r>
       <r>  -10.5424    1.0000 </r>
       <r>  -10.5319    1.0000 </r>
       <r>  -10.5319    1.0000 </r>
       <r>   -6.2764    1.0000 </r>
       <r>   -6.2763    1.0000 </r>
       <r>   -1.5056    1.0000 </r>
       <r>   -1.5056    1.0000 </r>
       <r>    2.8616    1.0000 </r>
       <r>    2.8616    1.0000 </r>
       <r>    3.6059    1.0000 </r>
       <r>    3.6059    1.0000 </r>
       <r>    4.5570    1.0000 </r>
       <r>    4.5570    1.0000 </r>
       <r>    6.5963    0.0000 </r>
       <r>    6.5963    0.0000 </r>
       <r>    8.6971    0.0000 </r>
       <r>    8.6971    0.0000 </r>
       <r>    9.6235    0.0000 </r>
       <r>    9.6235    0.0000 </r>
       <r>    9.7091    0.0000 </r>
       <r>    9.7091    0.0000 </r>
      </set>
      <set comment="kpoint 13">
       <r>  -13.0999    1.0000 </r>
       <r>  -13.0999    1.0000 </r>
       <r>  -13.0983    1.0000 </r>
       <r>  -13.0983    1.0000 </r>
       <r>  -10.5513    1.0000 </r>
       <r>  -10.5513    1.0000 </r>
       <r>  -10.5424    1.0000 </r>
       <r>  -10.5424    1.0000 </r>
       <r>  -10.5309    1.0000 </r>
       <r>  -10.5309    1.0000 </r>
       <r>   -6.2098    1.0000 </r>
       <r>   -6.2098    1.0000 </r>
       <r>   -1.5974    1.0000 </r>
       <r>   -1.5974    1.0000 </r>
       <r>    2.8001    1.0000 </r>
       <r>    2.8001    1.0000 </r>
       <r>    3.5315    1.0000 </r>
       <r>    3.5315    1.0000 </r>
       <r>    4.3502    1.0000 </r>
       <r>    4.3502    1.0000 </r>
       <r>    6.7504    0.0000 </r>
       <r>    6.7504    0.0000 </r>
       <r>    8.7330    0.0000 </r>
       <r>    8.7330    0.0000 </r>
       <r>    9.5042    0.0000 </r>
       <r>    9.5042    0.0000 </r>
       <r>    9.7627    0.0000 </r>
       <r>    9.7627    0.0000 </r>
      </set>
      <set comment="kpoint 14">
       <r>  -13.1000    1.0000 </r>
       <r>  -13.1000    1.0000 </r>
       <r>  -13.0982    1.0000 </r>
       <r>  -13.0982    1.0000 </r>
       <r>  -10.5528    1.0000 </r>
       <r>  -10.5528    1.0000 </r>
       <r>  -10.5423    1.0000 </r>
       <r>  -10.5423    1.0000 </r>
       <r>  -10.5298    1.0000 </r>
       <r>  -10.5298    1.0000 </r>
       <r>   -6.1389    1.0000 </r>
       <r>   -6.1389    1.0000 </r>
       <r>   -1.6848    1.0000 </r>
       <r>   -1.6848    1.0000 </r>
       <r>    2.7363    1.0000 </r>
       <r>    2.7363    1.0000 </r>
       <r>    3.4566    1.0000 </r>
       <r>    3.4566    1.0000 </r>
       <r>    4.0957    1.0000 </r>
       <r>    4.0957    1.0000 </r>
       <r>    6.9663    0.0000 </r>
       <r>    6.9663    0.0000 </r>
       <r>    8.7815    0.0000 </r>
       <r>    8.7815    0.0000 </r>
       <r>    9.3903    0.0000 </r>
       <r>    9.3903    0.0000 </r>
       <r>    9.8247    0.0000 </r>
       <r>    9.8247    0.0000 </r>
      </set>
      <set comment="kpoint 15">
       <r>  -13.1001    1.0000 </r>
       <r>  -13.1001    1.0000 </r>
       <r>  -13.0980    1.0000 </r>
       <r>  -13.0980    1.0000 </r>
       <r>  -10.5544    1.0000 </r>
       <r>  -10.5544    1.0000 </r>
       <r>  -10.5423    1.0000 </r>
       <r>  -10.5423    1.0000 </r>
       <r>  -10.5287    1.0000 </r>
       <r>  -10.5287    1.0000 </r>
       <r>   -6.0643    1.0000 </r>
       <r>   -6.0643    1.0000 </r>
       <r>   -1.7669    1.0000 </r>
       <r>   -1.7669    1.0000 </r>
       <r>    2.6714    1.0000 </r>
       <r>    2.6714    1.0000 </r>
       <r>    3.3823    1.0000 </r>
       <r>    3.3823    1.0000 </r>
       <r>    3.8155    1.0000 </r>
       <r>    3.8155    1.0000 </r>
       <r>    7.2215    0.0000 </r>
       <r>    7.2215    0.0000 </r>
       <r>    8.8418    0.0000 </r>
       <r>    8.8418    0.0000 </r>
       <r>    9.2825    0.0000 </r>
       <r>    9.2825    0.0000 </r>
       <r>    9.8938    0.0000 </r>
       <r>    9.8938    0.0000 </r>
      </set>
      <set comment="kpoint 16">
       <r>  -13.1003    1.0000 </r>
       <r>  -13.1003    1.0000 </r>
       <r>  -13.0978    1.0000 </r>
       <r>  -13.0978    1.0000 </r>
       <r>  -10.5561    1.0000 </r>
       <r>  -10.5561    1.0000 </r>
       <r>  -10.5422    1.0000 </r>
       <r>  -10.5422    1.0000 </r>
       <r>  -10.5276    1.0000 </r>
       <r>  -10.5276    1.0000 </r>
       <r>   -5.9865    1.0000 </r>
       <r>   -5.9865    1.0000 </r>
       <r>   -1.8428    1.0000 </r>
       <r>   -1.8428    1.0000 </r>
       <r>    2.6066    1.0000 </r>
       <r>    2.6066    1.0000 </r>
       <r>    3.3092    1.0000 </r>
       <r>    3.3092    1.0000 </r>
       <r>    3.5237    1.0000 </r>
       <r>    3.5237    1.0000 </r>
       <r>    7.5005    0.0000 </r>
       <r>    7.5005    0.0000 </r>
       <r>    8.9137    0.0000 </r>
       <r>    8.9137    0.0000 </r>
       <r>    9.1811    0.0000 </r>
       <r>    9.1811    0.0000 </r>
       <r>    9.9691    0.0000 </r>
       <r>    9.9691    0.0000 </r>
      </set>
      <set comment="kpoint 17">
       <r>  -13.1005    1.0000 </r>
       <r>  -13.1005    1.0000 </r>
       <r>  -13.0976    1.0000 </r>
       <r>  -13.0976    1.0000 </r>
       <r>  -10.5579    1.0000 </r>
       <r>  -10.5579    1.0000 </r>
       <r>  -10.5422    1.0000 </r>
       <r>  -10.5422    1.0000 </r>
       <r>  -10.5265    1.0000 </r>
       <r>  -10.5265    1.0000 </r>
       <r>   -5.9063    1.0000 </r>
       <r>   -5.9063    1.0000 </r>
       <r>   -1.9119    1.0000 </r>
       <r>   -1.9119    1.0000 </r>
       <r>    2.5428    1.0000 </r>
       <r>    2.5428    1.0000 </r>
       <r>    3.2290    1.0000 </r>
       <r>    3.2290    1.0000 </r>
       <r>    3.2383    1.0000 </r>
       <r>    3.2383    1.0000 </r>
       <r>    7.7915    0.0000 </r>
       <r>    7.7915    0.0000 </r>
       <r>    8.9986    0.0000 </r>
       <r>    8.9986    0.0000 </r>
       <r>    9.0864    0.0000 </r>
       <r>    9.0864    0.0000 </r>
       <r>   10.0495    0.0000 </r>
       <r>   10.0495    0.0000 </r>
      </set>
      <set comment="kpoint 18">
       <r>  -13.1007    1.0000 </r>
       <r>  -13.1007    1.0000 </r>
       <r>  -13.0974    1.0000 </r>
       <r>  -13.0974    1.0000 </r>
       <r>  -10.5597    1.0000 </r>
       <r>  -10.5597    1.0000 </r>
       <r>  -10.5422    1.0000 </r>
       <r>  -10.5422    1.0000 </r>
       <r>  -10.5254    1.0000 </r>
       <r>  -10.5254    1.0000 </r>
       <r>   -5.8246    1.0000 </r>
       <r>   -5.8246    1.0000 </r>
       <r>   -1.9737    1.0000 </r>
       <r>   -1.9737    1.0000 </r>
       <r>    2.4809    1.0000 </r>
       <r>    2.4809    1.0000 </r>
       <r>    2.9373    1.0000 </r>
       <r>    2.9373    1.0000 </r>
       <r>    3.1701    1.0000 </r>
       <r>    3.1701    1.0000 </r>
       <r>    8.0830    0.0000 </r>
       <r>    8.0830    0.0000 </r>
       <r>    8.9984    0.0000 </r>
       <r>    8.9984    0.0000 </r>
       <r>    9.1002    0.0000 </r>
       <r>    9.1002    0.0000 </r>
       <r>   10.1340    0.0000 </r>
       <r>   10.1340    0.0000 </r>
      </set>
      <set comment="kpoint 19">
       <r>  -13.1009    1.0000 </r>
       <r>  -13.1009    1.0000 </r>
       <r>  -13.0972    1.0000 </r>
       <r>  -13.0972    1.0000 </r>
       <r>  -10.5616    1.0000 </r>
       <r>  -10.5616    1.0000 </r>
       <r>  -10.5422    1.0000 </r>
       <r>  -10.5422    1.0000 </r>
       <r>  -10.5243    1.0000 </r>
       <r>  -10.5243    1.0000 </r>
       <r>   -5.7423    1.0000 </r>
       <r>   -5.7423    1.0000 </r>
       <r>   -2.0277    1.0000 </r>
       <r>   -2.0277    1.0000 </r>
       <r>    2.4215    1.0000 </r>
       <r>    2.4215    1.0000 </r>
       <r>    2.6527    1.0000 </r>
       <r>    2.6527    1.0000 </r>
       <r>    3.1052    1.0000 </r>
       <r>    3.1052    1.0000 </r>
       <r>    8.3611    0.0000 </r>
       <r>    8.3611    0.0000 </r>
       <r>    8.9172    0.0000 </r>
       <r>    8.9172    0.0000 </r>
       <r>    9.2262    0.0000 </r>
       <r>    9.2262    0.0000 </r>
       <r>   10.2212    0.0000 </r>
       <r>   10.2212    0.0000 </r>
      </set>
      <set comment="kpoint 20">
       <r>  -13.1011    1.0000 </r>
       <r>  -13.1011    1.0000 </r>
       <r>  -13.0970    1.0000 </r>
       <r>  -13.0970    1.0000 </r>
       <r>  -10.5634    1.0000 </r>
       <r>  -10.5634    1.0000 </r>
       <r>  -10.5421    1.0000 </r>
       <r>  -10.5421    1.0000 </r>
       <r>  -10.5232    1.0000 </r>
       <r>  -10.5232    1.0000 </r>
       <r>   -5.6605    1.0000 </r>
       <r>   -5.6605    1.0000 </r>
       <r>   -2.0737    1.0000 </r>
       <r>   -2.0737    1.0000 </r>
       <r>    2.3643    1.0000 </r>
       <r>    2.3643    1.0000 </r>
       <r>    2.3795    1.0000 </r>
       <r>    2.3795    1.0000 </r>
       <r>    3.0444    1.0000 </r>
       <r>    3.0444    1.0000 </r>
       <r>    8.6083    0.0000 </r>
       <r>    8.6083    0.0000 </r>
       <r>    8.8430    0.0000 </r>
       <r>    8.8430    0.0000 </r>
       <r>    9.3885    0.0000 </r>
       <r>    9.3885    0.0000 </r>
       <r>   10.3099    0.0000 </r>
       <r>   10.3099    0.0000 </r>
      </set>
      <set comment="kpoint 21">
       <r>  -13.1013    1.0000 </r>
       <r>  -13.1013    1.0000 </r>
       <r>  -13.0969    1.0000 </r>
       <r>  -13.0969    1.0000 </r>
       <r>  -10.5652    1.0000 </r>
       <r>  -10.5652    1.0000 </r>
       <r>  -10.5421    1.0000 </r>
       <r>  -10.5421    1.0000 </r>
       <r>  -10.5222    1.0000 </r>
       <r>  -10.5222    1.0000 </r>
       <r>   -5.5805    1.0000 </r>
       <r>   -5.5805    1.0000 </r>
       <r>   -2.1115    1.0000 </r>
       <r>   -2.1115    1.0000 </r>
       <r>    2.1170    1.0000 </r>
       <r>    2.1170    1.0000 </r>
       <r>    2.3134    1.0000 </r>
       <r>    2.3134    1.0000 </r>
       <r>    2.9879    1.0000 </r>
       <r>    2.9879    1.0000 </r>
       <r>    8.7757    0.0000 </r>
       <r>    8.7757    0.0000 </r>
       <r>    8.8093    0.0000 </r>
       <r>    8.8093    0.0000 </r>
       <r>    9.5966    0.0000 </r>
       <r>    9.5966    0.0000 </r>
       <r>   10.3985    0.0000 </r>
       <r>   10.3985    0.0000 </r>
      </set>
      <set comment="kpoint 22">
       <r>  -13.1015    1.0000 </r>
       <r>  -13.1015    1.0000 </r>
       <r>  -13.0967    1.0000 </r>
       <r>  -13.0967    1.0000 </r>
       <r>  -10.5669    1.0000 </r>
       <r>  -10.5669    1.0000 </r>
       <r>  -10.5421    1.0000 </r>
       <r>  -10.5421    1.0000 </r>
       <r>  -10.5212    1.0000 </r>
       <r>  -10.5212    1.0000 </r>
       <r>   -5.5035    1.0000 </r>
       <r>   -5.5035    1.0000 </r>
       <r>   -2.1412    1.0000 </r>
       <r>   -2.1412    1.0000 </r>
       <r>    1.8717    1.0000 </r>
       <r>    1.8717    1.0000 </r>
       <r>    2.2654    1.0000 </r>
       <r>    2.2654    1.0000 </r>
       <r>    2.9363    1.0000 </r>
       <r>    2.9363    1.0000 </r>
       <r>    8.7154    0.0000 </r>
       <r>    8.7154    0.0000 </r>
       <r>    8.9627    0.0000 </r>
       <r>    8.9627    0.0000 </r>
       <r>    9.8458    0.0000 </r>
       <r>    9.8458    0.0000 </r>
       <r>   10.4852    0.0000 </r>
       <r>   10.4852    0.0000 </r>
      </set>
      <set comment="kpoint 23">
       <r>  -13.1017    1.0000 </r>
       <r>  -13.1017    1.0000 </r>
       <r>  -13.0966    1.0000 </r>
       <r>  -13.0966    1.0000 </r>
       <r>  -10.5686    1.0000 </r>
       <r>  -10.5686    1.0000 </r>
       <r>  -10.5421    1.0000 </r>
       <r>  -10.5421    1.0000 </r>
       <r>  -10.5204    1.0000 </r>
       <r>  -10.5204    1.0000 </r>
       <r>   -5.4310    1.0000 </r>
       <r>   -5.4310    1.0000 </r>
       <r>   -2.1632    1.0000 </r>
       <r>   -2.1632    1.0000 </r>
       <r>    1.6447    1.0000 </r>
       <r>    1.6447    1.0000 </r>
       <r>    2.2221    1.0000 </r>
       <r>    2.2221    1.0000 </r>
       <r>    2.8899    1.0000 </r>
       <r>    2.8899    1.0000 </r>
       <r>    8.6621    0.0000 </r>
       <r>    8.6621    0.0000 </r>
       <r>    9.0798    0.0000 </r>
       <r>    9.0798    0.0000 </r>
       <r>   10.1182    0.0000 </r>
       <r>   10.1182    0.0000 </r>
       <r>   10.5685    0.0000 </r>
       <r>   10.5685    0.0000 </r>
      </set>
      <set comment="kpoint 24">
       <r>  -13.1019    1.0000 </r>
       <r>  -13.1019    1.0000 </r>
       <r>  -13.0964    1.0000 </r>
       <r>  -13.0964    1.0000 </r>
       <r>  -10.5700    1.0000 </r>
       <r>  -10.5700    1.0000 </r>
       <r>  -10.5421    1.0000 </r>
       <r>  -10.5421    1.0000 </r>
       <r>  -10.5196    1.0000 </r>
       <r>  -10.5196    1.0000 </r>
       <r>   -5.3643    1.0000 </r>
       <r>   -5.3643    1.0000 </r>
       <r>   -2.1780    1.0000 </r>
       <r>   -2.1780    1.0000 </r>
       <r>    1.4390    1.0000 </r>
       <r>    1.4390    1.0000 </r>
       <r>    2.1840    1.0000 </r>
       <r>    2.1840    1.0000 </r>
       <r>    2.8490    1.0000 </r>
       <r>    2.8490    1.0000 </r>
       <r>    8.6159    0.0000 </r>
       <r>    8.6160    0.0000 </r>
       <r>    9.1719    0.0000 </r>
       <r>    9.1719    0.0000 </r>
       <r>   10.3948    0.0000 </r>
       <r>   10.3949    0.0000 </r>
       <r>   10.6462    0.0000 </r>
       <r>   10.6463    0.0000 </r>
      </set>
      <set comment="kpoint 25">
       <r>  -13.1020    1.0000 </r>
       <r>  -13.1020    1.0000 </r>
       <r>  -13.0963    1.0000 </r>
       <r>  -13.0963    1.0000 </r>
       <r>  -10.5713    1.0000 </r>
       <r>  -10.5713    1.0000 </r>
       <r>  -10.5421    1.0000 </r>
       <r>  -10.5421    1.0000 </r>
       <r>  -10.5189    1.0000 </r>
       <r>  -10.5189    1.0000 </r>
       <r>   -5.3050    1.0000 </r>
       <r>   -5.3050    1.0000 </r>
       <r>   -2.1866    1.0000 </r>
       <r>   -2.1866    1.0000 </r>
       <r>    1.2573    1.0000 </r>
       <r>    1.2573    1.0000 </r>
       <r>    2.1512    1.0000 </r>
       <r>    2.1512    1.0000 </r>
       <r>    2.8140    1.0000 </r>
       <r>    2.8140    1.0000 </r>
       <r>    8.5768    0.0000 </r>
       <r>    8.5768    0.0000 </r>
       <r>    9.2460    0.0000 </r>
       <r>    9.2460    0.0000 </r>
       <r>   10.6601    0.0000 </r>
       <r>   10.6601    0.0000 </r>
       <r>   10.7166    0.0000 </r>
       <r>   10.7166    0.0000 </r>
      </set>
      <set comment="kpoint 26">
       <r>  -13.1022    1.0000 </r>
       <r>  -13.1022    1.0000 </r>
       <r>  -13.0962    1.0000 </r>
       <r>  -13.0962    1.0000 </r>
       <r>  -10.5724    1.0000 </r>
       <r>  -10.5724    1.0000 </r>
       <r>  -10.5421    1.0000 </r>
       <r>  -10.5421    1.0000 </r>
       <r>  -10.5183    1.0000 </r>
       <r>  -10.5183    1.0000 </r>
       <r>   -5.2544    1.0000 </r>
       <r>   -5.2544    1.0000 </r>
       <r>   -2.1903    1.0000 </r>
       <r>   -2.1903    1.0000 </r>
       <r>    1.1027    1.0000 </r>
       <r>    1.1027    1.0000 </r>
       <r>    2.1240    1.0000 </r>
       <r>    2.1240    1.0000 </r>
       <r>    2.7851    1.0000 </r>
       <r>    2.7851    1.0000 </r>
       <r>    8.5448    0.0000 </r>
       <r>    8.5448    0.0000 </r>
       <r>    9.3052    0.0000 </r>
       <r>    9.3052    0.0000 </r>
       <r>   10.7776    0.0000 </r>
       <r>   10.7776    0.0000 </r>
       <r>   10.9008    0.0000 </r>
       <r>   10.9008    0.0000 </r>
      </set>
      <set comment="kpoint 27">
       <r>  -13.1023    1.0000 </r>
       <r>  -13.1023    1.0000 </r>
       <r>  -13.0961    1.0000 </r>
       <r>  -13.0961    1.0000 </r>
       <r>  -10.5733    1.0000 </r>
       <r>  -10.5733    1.0000 </r>
       <r>  -10.5421    1.0000 </r>
       <r>  -10.5421    1.0000 </r>
       <r>  -10.5179    1.0000 </r>
       <r>  -10.5179    1.0000 </r>
       <r>   -5.2137    1.0000 </r>
       <r>   -5.2137    1.0000 </r>
       <r>   -2.1906    1.0000 </r>
       <r>   -2.1906    1.0000 </r>
       <r>    0.9782    1.0000 </r>
       <r>    0.9782    1.0000 </r>
       <r>    2.1027    1.0000 </r>
       <r>    2.1027    1.0000 </r>
       <r>    2.7624    1.0000 </r>
       <r>    2.7624    1.0000 </r>
       <r>    8.5199    0.0000 </r>
       <r>    8.5199    0.0000 </r>
       <r>    9.3510    0.0000 </r>
       <r>    9.3510    0.0000 </r>
       <r>   10.8273    0.0000 </r>
       <r>   10.8273    0.0000 </r>
       <r>   11.1048    0.0000 </r>
       <r>   11.1048    0.0000 </r>
      </set>
      <set comment="kpoint 28">
       <r>  -13.1024    1.0000 </r>
       <r>  -13.1024    1.0000 </r>
       <r>  -13.0961    1.0000 </r>
       <r>  -13.0961    1.0000 </r>
       <r>  -10.5740    1.0000 </r>
       <r>  -10.5740    1.0000 </r>
       <r>  -10.5421    1.0000 </r>
       <r>  -10.5421    1.0000 </r>
       <r>  -10.5175    1.0000 </r>
       <r>  -10.5175    1.0000 </r>
       <r>   -5.1839    1.0000 </r>
       <r>   -5.1839    1.0000 </r>
       <r>   -2.1893    1.0000 </r>
       <r>   -2.1893    1.0000 </r>
       <r>    0.8868    1.0000 </r>
       <r>    0.8868    1.0000 </r>
       <r>    2.0874    1.0000 </r>
       <r>    2.0874    1.0000 </r>
       <r>    2.7461    1.0000 </r>
       <r>    2.7461    1.0000 </r>
       <r>    8.5021    0.0000 </r>
       <r>    8.5021    0.0000 </r>
       <r>    9.3838    0.0000 </r>
       <r>    9.3838    0.0000 </r>
       <r>   10.8642    0.0000 </r>
       <r>   10.8642    0.0000 </r>
       <r>   11.2608    0.0000 </r>
       <r>   11.2608    0.0000 </r>
      </set>
      <set comment="kpoint 29">
       <r>  -13.1025    1.0000 </r>
       <r>  -13.1025    1.0000 </r>
       <r>  -13.0961    1.0000 </r>
       <r>  -13.0961    1.0000 </r>
       <r>  -10.5744    1.0000 </r>
       <r>  -10.5744    1.0000 </r>
       <r>  -10.5421    1.0000 </r>
       <r>  -10.5421    1.0000 </r>
       <r>  -10.5173    1.0000 </r>
       <r>  -10.5173    1.0000 </r>
       <r>   -5.1656    1.0000 </r>
       <r>   -5.1656    1.0000 </r>
       <r>   -2.1877    1.0000 </r>
       <r>   -2.1877    1.0000 </r>
       <r>    0.8309    1.0000 </r>
       <r>    0.8309    1.0000 </r>
       <r>    2.0781    1.0000 </r>
       <r>    2.0781    1.0000 </r>
       <r>    2.7363    1.0000 </r>
       <r>    2.7363    1.0000 </r>
       <r>    8.4914    0.0000 </r>
       <r>    8.4914    0.0000 </r>
       <r>    9.4035    0.0000 </r>
       <r>    9.4035    0.0000 </r>
       <r>   10.8869    0.0000 </r>
       <r>   10.8869    0.0000 </r>
       <r>   11.3590    0.0000 </r>
       <r>   11.3590    0.0000 </r>
      </set>
      <set comment="kpoint 30">
       <r>  -13.1025    1.0000 </r>
       <r>  -13.1025    1.0000 </r>
       <r>  -13.0960    1.0000 </r>
       <r>  -13.0960    1.0000 </r>
       <r>  -10.5745    1.0000 </r>
       <r>  -10.5745    1.0000 </r>
       <r>  -10.5421    1.0000 </r>
       <r>  -10.5421    1.0000 </r>
       <r>  -10.5173    1.0000 </r>
       <r>  -10.5173    1.0000 </r>
       <r>   -5.1595    1.0000 </r>
       <r>   -5.1595    1.0000 </r>
       <r>   -2.1871    1.0000 </r>
       <r>   -2.1870    1.0000 </r>
       <r>    0.8121    1.0000 </r>
       <r>    0.8121    1.0000 </r>
       <r>    2.0750    1.0000 </r>
       <r>    2.0750    1.0000 </r>
       <r>    2.7330    1.0000 </r>
       <r>    2.7330    1.0000 </r>
       <r>    8.4879    0.0000 </r>
       <r>    8.4879    0.0000 </r>
       <r>    9.4101    0.0000 </r>
       <r>    9.4101    0.0000 </r>
       <r>   10.8945    0.0000 </r>
       <r>   10.8945    0.0000 </r>
       <r>   11.3925    0.0000 </r>
       <r>   11.3926    0.0000 </r>
      </set>
      <set comment="kpoint 31">
       <r>  -13.1025    1.0000 </r>
       <r>  -13.1025    1.0000 </r>
       <r>  -13.0960    1.0000 </r>
       <r>  -13.0960    1.0000 </r>
       <r>  -10.5745    1.0000 </r>
       <r>  -10.5745    1.0000 </r>
       <r>  -10.5421    1.0000 </r>
       <r>  -10.5421    1.0000 </r>
       <r>  -10.5173    1.0000 </r>
       <r>  -10.5173    1.0000 </r>
       <r>   -5.1595    1.0000 </r>
       <r>   -5.1595    1.0000 </r>
       <r>   -2.1871    1.0000 </r>
       <r>   -2.1870    1.0000 </r>
       <r>    0.8121    1.0000 </r>
       <r>    0.8121    1.0000 </r>
       <r>    2.0750    1.0000 </r>
       <r>    2.0750    1.0000 </r>
       <r>    2.7330    1.0000 </r>
       <r>    2.7330    1.0000 </r>
       <r>    8.4879    0.0000 </r>
       <r>    8.4879    0.0000 </r>
       <r>    9.4101    0.0000 </r>
       <r>    9.4101    0.0000 </r>
       <r>   10.8945    0.0000 </r>
       <r>   10.8945    0.0000 </r>
       <r>   11.3925    0.0000 </r>
       <r>   11.3926    0.0000 </r>
      </set>
      <set comment="kpoint 32">
       <r>  -13.1025    1.0000 </r>
       <r>  -13.1025    1.0000 </r>
       <r>  -13.0961    1.0000 </r>
       <r>  -13.0961    1.0000 </r>
       <r>  -10.5744    1.0000 </r>
       <r>  -10.5744    1.0000 </r>
       <r>  -10.5421    1.0000 </r>
       <r>  -10.5421    1.0000 </r>
       <r>  -10.5173    1.0000 </r>
       <r>  -10.5173    1.0000 </r>
       <r>   -5.1583    1.0000 </r>
       <r>   -5.1583    1.0000 </r>
       <r>   -2.1943    1.0000 </r>
       <r>   -2.1943    1.0000 </r>
       <r>    0.8153    1.0000 </r>
       <r>    0.8153    1.0000 </r>
       <r>    2.0807    1.0000 </r>
       <r>    2.0807    1.0000 </r>
       <r>    2.7383    1.0000 </r>
       <r>    2.7383    1.0000 </r>
       <r>    8.4986    0.0000 </r>
       <r>    8.4986    0.0000 </r>
       <r>    9.3952    0.0000 </r>
       <r>    9.3952    0.0000 </r>
       <r>   10.8722    0.0000 </r>
       <r>   10.8722    0.0000 </r>
       <r>   11.3854    0.0000 </r>
       <r>   11.3854    0.0000 </r>
      </set>
      <set comment="kpoint 33">
       <r>  -13.1024    1.0000 </r>
       <r>  -13.1024    1.0000 </r>
       <r>  -13.0961    1.0000 </r>
       <r>  -13.0961    1.0000 </r>
       <r>  -10.5741    1.0000 </r>
       <r>  -10.5741    1.0000 </r>
       <r>  -10.5421    1.0000 </r>
       <r>  -10.5421    1.0000 </r>
       <r>  -10.5175    1.0000 </r>
       <r>  -10.5175    1.0000 </r>
       <r>   -5.1546    1.0000 </r>
       <r>   -5.1546    1.0000 </r>
       <r>   -2.2156    1.0000 </r>
       <r>   -2.2156    1.0000 </r>
       <r>    0.8249    1.0000 </r>
       <r>    0.8250    1.0000 </r>
       <r>    2.0949    1.0000 </r>
       <r>    2.0949    1.0000 </r>
       <r>    2.7567    1.0000 </r>
       <r>    2.7567    1.0000 </r>
       <r>    8.5302    0.0000 </r>
       <r>    8.5302    0.0000 </r>
       <r>    9.3482    0.0000 </r>
       <r>    9.3482    0.0000 </r>
       <r>   10.8123    0.0000 </r>
       <r>   10.8124    0.0000 </r>
       <r>   11.3646    0.0000 </r>
       <r>   11.3647    0.0000 </r>
      </set>
      <set comment="kpoint 34">
       <r>  -13.1023    1.0000 </r>
       <r>  -13.1023    1.0000 </r>
       <r>  -13.0961    1.0000 </r>
       <r>  -13.0961    1.0000 </r>
       <r>  -10.5737    1.0000 </r>
       <r>  -10.5737    1.0000 </r>
       <r>  -10.5421    1.0000 </r>
       <r>  -10.5421    1.0000 </r>
       <r>  -10.5177    1.0000 </r>
       <r>  -10.5177    1.0000 </r>
       <r>   -5.1486    1.0000 </r>
       <r>   -5.1486    1.0000 </r>
       <r>   -2.2495    1.0000 </r>
       <r>   -2.2495    1.0000 </r>
       <r>    0.8410    1.0000 </r>
       <r>    0.8410    1.0000 </r>
       <r>    2.1106    1.0000 </r>
       <r>    2.1106    1.0000 </r>
       <r>    2.7945    1.0000 </r>
       <r>    2.7945    1.0000 </r>
       <r>    8.5813    0.0000 </r>
       <r>    8.5813    0.0000 </r>
       <r>    9.2634    0.0000 </r>
       <r>    9.2634    0.0000 </r>
       <r>   10.7334    0.0000 </r>
       <r>   10.7334    0.0000 </r>
       <r>   11.3319    0.0000 </r>
       <r>   11.3320    0.0000 </r>
      </set>
      <set comment="kpoint 35">
       <r>  -13.1022    1.0000 </r>
       <r>  -13.1022    1.0000 </r>
       <r>  -13.0961    1.0000 </r>
       <r>  -13.0961    1.0000 </r>
       <r>  -10.5731    1.0000 </r>
       <r>  -10.5731    1.0000 </r>
       <r>  -10.5421    1.0000 </r>
       <r>  -10.5421    1.0000 </r>
       <r>  -10.5181    1.0000 </r>
       <r>  -10.5181    1.0000 </r>
       <r>   -5.1405    1.0000 </r>
       <r>   -5.1405    1.0000 </r>
       <r>   -2.2940    1.0000 </r>
       <r>   -2.2940    1.0000 </r>
       <r>    0.8634    1.0000 </r>
       <r>    0.8634    1.0000 </r>
       <r>    2.1181    1.0000 </r>
       <r>    2.1181    1.0000 </r>
       <r>    2.8598    1.0000 </r>
       <r>    2.8598    1.0000 </r>
       <r>    8.6480    0.0000 </r>
       <r>    8.6480    0.0000 </r>
       <r>    9.1364    0.0000 </r>
       <r>    9.1364    0.0000 </r>
       <r>   10.6577    0.0000 </r>
       <r>   10.6577    0.0000 </r>
       <r>   11.2885    0.0000 </r>
       <r>   11.2885    0.0000 </r>
      </set>
      <set comment="kpoint 36">
       <r>  -13.1021    1.0000 </r>
       <r>  -13.1021    1.0000 </r>
       <r>  -13.0962    1.0000 </r>
       <r>  -13.0962    1.0000 </r>
       <r>  -10.5725    1.0000 </r>
       <r>  -10.5725    1.0000 </r>
       <r>  -10.5421    1.0000 </r>
       <r>  -10.5421    1.0000 </r>
       <r>  -10.5185    1.0000 </r>
       <r>  -10.5185    1.0000 </r>
       <r>   -5.1305    1.0000 </r>
       <r>   -5.1305    1.0000 </r>
       <r>   -2.3465    1.0000 </r>
       <r>   -2.3465    1.0000 </r>
       <r>    0.8920    1.0000 </r>
       <r>    0.8920    1.0000 </r>
       <r>    2.1103    1.0000 </r>
       <r>    2.1103    1.0000 </r>
       <r>    2.9583    1.0000 </r>
       <r>    2.9583    1.0000 </r>
       <r>    8.7129    0.0000 </r>
       <r>    8.7129    0.0000 </r>
       <r>    8.9805    0.0000 </r>
       <r>    8.9805    0.0000 </r>
       <r>   10.6027    0.0000 </r>
       <r>   10.6027    0.0000 </r>
       <r>   11.2360    0.0000 </r>
       <r>   11.2361    0.0000 </r>
      </set>
      <set comment="kpoint 37">
       <r>  -13.1020    1.0000 </r>
       <r>  -13.1020    1.0000 </r>
       <r>  -13.0963    1.0000 </r>
       <r>  -13.0963    1.0000 </r>
       <r>  -10.5717    1.0000 </r>
       <r>  -10.5717    1.0000 </r>
       <r>  -10.5421    1.0000 </r>
       <r>  -10.5421    1.0000 </r>
       <r>  -10.5190    1.0000 </r>
       <r>  -10.5190    1.0000 </r>
       <r>   -5.1189    1.0000 </r>
       <r>   -5.1189    1.0000 </r>
       <r>   -2.4044    1.0000 </r>
       <r>   -2.4044    1.0000 </r>
       <r>    0.9266    1.0000 </r>
       <r>    0.9266    1.0000 </r>
       <r>    2.0847    1.0000 </r>
       <r>    2.0847    1.0000 </r>
       <r>    3.0903    1.0000 </r>
       <r>    3.0903    1.0000 </r>
       <r>    8.6512    0.0000 </r>
       <r>    8.6512    0.0000 </r>
       <r>    8.9229    0.0000 </r>
       <r>    8.9229    0.0000 </r>
       <r>   10.5755    0.0000 </r>
       <r>   10.5755    0.0000 </r>
       <r>   11.1762    0.0000 </r>
       <r>   11.1762    0.0000 </r>
      </set>
      <set comment="kpoint 38">
       <r>  -13.1018    1.0000 </r>
       <r>  -13.1018    1.0000 </r>
       <r>  -13.0963    1.0000 </r>
       <r>  -13.0963    1.0000 </r>
       <r>  -10.5708    1.0000 </r>
       <r>  -10.5708    1.0000 </r>
[...]
       <r>     6.1844     0.0000     0.0000 </r>
       <r>     6.2817     0.0000     0.0000 </r>
       <r>     6.3789     0.0000     0.0000 </r>
       <r>     6.4761     0.0000     0.0000 </r>
       <r>     6.5733     0.0000     0.0000 </r>
       <r>     6.6706     0.0000     0.0000 </r>
       <r>     6.7678     0.0000     0.0000 </r>
       <r>     6.8650     0.0000     0.0000 </r>
       <r>     6.9623     0.0000     0.0000 </r>
       <r>     7.0595     0.0000     0.0000 </r>
       <r>     7.1567     0.0000     0.0000 </r>
       <r>     7.2540     0.0000     0.0000 </r>
       <r>     7.3512     0.0000     0.0000 </r>
       <r>     7.4484     0.0000     0.0000 </r>
       <r>     7.5456     0.0000     0.0000 </r>
       <r>     7.6429     0.0000     0.0000 </r>
       <r>     7.7401     0.0000     0.0000 </r>
       <r>     7.8373     0.0000     0.0000 </r>
       <r>     7.9346     0.0000     0.0000 </r>
       <r>     8.0318     0.0000     0.0000 </r>
       <r>     8.1290     0.0000     0.0000 </r>
       <r>     8.2263     0.0000     0.0000 </r>
       <r>     8.3235     0.0000     0.0000 </r>
       <r>     8.4207     0.0000     0.0000 </r>
       <r>     8.5179     0.0000     0.0000 </r>
       <r>     8.6152     0.0000     0.0000 </r>
       <r>     8.7124     0.0000     0.0000 </r>
       <r>     8.8096     0.0000     0.0000 </r>
       <r>     8.9069     0.0000     0.0000 </r>
       <r>     9.0041     0.0000     0.0000 </r>
       <r>     9.1013     0.0000     0.0000 </r>
       <r>     9.1986     0.0000     0.0000 </r>
       <r>     9.2958     0.0000     0.0000 </r>
       <r>     9.3930     0.0000     0.0000 </r>
       <r>     9.4902     0.0000     0.0000 </r>
       <r>     9.5875     0.0000     0.0000 </r>
       <r>     9.6847     0.0000     0.0000 </r>
       <r>     9.7819     0.0000     0.0000 </r>
       <r>     9.8792     0.0000     0.0000 </r>
       <r>     9.9764     0.0000     0.0000 </r>
       <r>    10.0736     0.0000     0.0000 </r>
       <r>    10.1709     0.0000     0.0000 </r>
       <r>    10.2681     0.0000     0.0000 </r>
       <r>    10.3653     0.0000     0.0000 </r>
       <r>    10.4625     0.0000     0.0000 </r>
       <r>    10.5598     0.0000     0.0000 </r>
       <r>    10.6570     0.0000     0.0000 </r>
       <r>    10.7542     0.0000     0.0000 </r>
       <r>    10.8515     0.0000     0.0000 </r>
       <r>    10.9487     0.0000     0.0000 </r>
       <r>    11.0459     0.0000     0.0000 </r>
       <r>    11.1432     0.0000     0.0000 </r>
       <r>    11.2404     0.0000     0.0000 </r>
       <r>    11.3376     0.0000     0.0000 </r>
       <r>    11.4348     0.0000     0.0000 </r>
       <r>    11.5321     0.0000     0.0000 </r>
       <r>    11.6293     0.0000     0.0000 </r>
       <r>    11.7265     0.0000     0.0000 </r>
       <r>    11.8238     0.0000     0.0000 </r>
       <r>    11.9210     0.0000     0.0000 </r>
       <r>    12.0182     0.0000     0.0000 </r>
       <r>    12.1155     0.0000     0.0000 </r>
       <r>    12.2127     0.0000     0.0000 </r>
       <r>    12.3099     0.0000     0.0000 </r>
       <r>    12.4071     0.0000     0.0000 </r>
       <r>    12.5044     0.0000     0.0000 </r>
       <r>    12.6016     0.0000     0.0000 </r>
       <r>    12.6988     0.0000     0.0000 </r>
       <r>    12.7961     0.0000     0.0000 </r>
       <r>    12.8933     0.0000     0.0000 </r>
       <r>    12.9905     0.0000     0.0000 </r>
       <r>    13.0878     0.0000     0.0000 </r>
       <r>    13.1850     0.0000     0.0000 </r>
       <r>    13.2822     0.0000     0.0000 </r>
       <r>    13.3794     0.0000     0.0000 </r>
       <r>    13.4767     0.0000     0.0000 </r>
       <r>    13.5739     0.0000     0.0000 </r>
       <r>    13.6711     0.0000     0.0000 </r>
       <r>    13.7684     0.0000     0.0000 </r>
       <r>    13.8656     0.0000     0.0000 </r>
       <r>    13.9628     0.0000     0.0000 </r>
       <r>    14.0601     0.0000     0.0000 </r>
       <r>    14.1573     0.0000     0.0000 </r>
       <r>    14.2545     0.0000     0.0000 </r>
       <r>    14.3517     0.0000     0.0000 </r>
       <r>    14.4490     0.0000     0.0000 </r>
       <r>    14.5462     0.0000     0.0000 </r>
       <r>    14.6434     0.0000     0.0000 </r>
       <r>    14.7407     0.0000     0.0000 </r>
      </set>
      <set comment="spin 4">
       <r>   -14.4283     0.0000     0.0000 </r>
       <r>   -14.3311     0.0000     0.0000 </r>
       <r>   -14.2339     0.0000     0.0000 </r>
       <r>   -14.1366     0.0000     0.0000 </r>
       <r>   -14.0394     0.0000     0.0000 </r>
       <r>   -13.9422     0.0000     0.0000 </r>
       <r>   -13.8450     0.0000     0.0000 </r>
       <r>   -13.7477     0.0000     0.0000 </r>
       <r>   -13.6505     0.0000     0.0000 </r>
       <r>   -13.5533     0.0000     0.0000 </r>
       <r>   -13.4560     0.0000     0.0000 </r>
       <r>   -13.3588     0.0000     0.0000 </r>
       <r>   -13.2616     0.0000     0.0000 </r>
       <r>   -13.1643     0.0000     0.0000 </r>
       <r>   -13.0671     0.0000     0.0000 </r>
       <r>   -12.9699     0.0000     0.0000 </r>
       <r>   -12.8727     0.0000     0.0000 </r>
       <r>   -12.7754     0.0000     0.0000 </r>
       <r>   -12.6782     0.0000     0.0000 </r>
       <r>   -12.5810     0.0000     0.0000 </r>
       <r>   -12.4837     0.0000     0.0000 </r>
       <r>   -12.3865     0.0000     0.0000 </r>
       <r>   -12.2893     0.0000     0.0000 </r>
       <r>   -12.1920     0.0000     0.0000 </r>
       <r>   -12.0948     0.0000     0.0000 </r>
       <r>   -11.9976     0.0000     0.0000 </r>
       <r>   -11.9004     0.0000     0.0000 </r>
       <r>   -11.8031     0.0000     0.0000 </r>
       <r>   -11.7059     0.0000     0.0000 </r>
       <r>   -11.6087     0.0000     0.0000 </r>
       <r>   -11.5114     0.0000     0.0000 </r>
       <r>   -11.4142     0.0000     0.0000 </r>
       <r>   -11.3170     0.0000     0.0000 </r>
       <r>   -11.2197     0.0000     0.0000 </r>
       <r>   -11.1225     0.0000     0.0000 </r>
       <r>   -11.0253     0.0000     0.0000 </r>
       <r>   -10.9281     0.0000     0.0000 </r>
       <r>   -10.8308     0.0000     0.0000 </r>
       <r>   -10.7336     0.0000     0.0000 </r>
       <r>   -10.6364     0.0000     0.0000 </r>
       <r>   -10.5391     0.0000     0.0000 </r>
       <r>   -10.4419     0.0000     0.0000 </r>
       <r>   -10.3447     0.0000     0.0000 </r>
       <r>   -10.2474     0.0000     0.0000 </r>
       <r>   -10.1502     0.0000     0.0000 </r>
       <r>   -10.0530     0.0000     0.0000 </r>
       <r>    -9.9558     0.0000     0.0000 </r>
       <r>    -9.8585     0.0000     0.0000 </r>
       <r>    -9.7613     0.0000     0.0000 </r>
       <r>    -9.6641     0.0000     0.0000 </r>
       <r>    -9.5668     0.0000     0.0000 </r>
       <r>    -9.4696     0.0000     0.0000 </r>
       <r>    -9.3724     0.0000     0.0000 </r>
       <r>    -9.2751     0.0000     0.0000 </r>
       <r>    -9.1779     0.0000     0.0000 </r>
       <r>    -9.0807     0.0000     0.0000 </r>
       <r>    -8.9835     0.0000     0.0000 </r>
       <r>    -8.8862     0.0000     0.0000 </r>
       <r>    -8.7890     0.0000     0.0000 </r>
       <r>    -8.6918     0.0000     0.0000 </r>
       <r>    -8.5945     0.0000     0.0000 </r>
       <r>    -8.4973     0.0000     0.0000 </r>
       <r>    -8.4001     0.0000     0.0000 </r>
       <r>    -8.3028     0.0000     0.0000 </r>
       <r>    -8.2056     0.0000     0.0000 </r>
       <r>    -8.1084     0.0000     0.0000 </r>
       <r>    -8.0112     0.0000     0.0000 </r>
       <r>    -7.9139     0.0000     0.0000 </r>
       <r>    -7.8167     0.0000     0.0000 </r>
       <r>    -7.7195     0.0000     0.0000 </r>
       <r>    -7.6222     0.0000     0.0000 </r>
       <r>    -7.5250     0.0000     0.0000 </r>
       <r>    -7.4278     0.0000     0.0000 </r>
       <r>    -7.3305     0.0000     0.0000 </r>
       <r>    -7.2333     0.0000     0.0000 </r>
       <r>    -7.1361     0.0000     0.0000 </r>
       <r>    -7.0389     0.0000     0.0000 </r>
       <r>    -6.9416     0.0000     0.0000 </r>
       <r>    -6.8444     0.0000     0.0000 </r>
       <r>    -6.7472     0.0000     0.0000 </r>
       <r>    -6.6499     0.0000     0.0000 </r>
       <r>    -6.5527     0.0000     0.0000 </r>
       <r>    -6.4555     0.0000     0.0000 </r>
       <r>    -6.3582     0.0000     0.0000 </r>
       <r>    -6.2610     0.0000     0.0000 </r>
       <r>    -6.1638     0.0000     0.0000 </r>
       <r>    -6.0666     0.0000     0.0000 </r>
       <r>    -5.9693     0.0000     0.0000 </r>
       <r>    -5.8721     0.0000     0.0000 </r>
       <r>    -5.7749     0.0000     0.0000 </r>
       <r>    -5.6776     0.0000     0.0000 </r>
       <r>    -5.5804     0.0000     0.0000 </r>
       <r>    -5.4832     0.0000     0.0000 </r>
       <r>    -5.3859     0.0000     0.0000 </r>
       <r>    -5.2887     0.0000     0.0000 </r>
       <r>    -5.1915     0.0000     0.0000 </r>
       <r>    -5.0943     0.0000     0.0000 </r>
       <r>    -4.9970     0.0000     0.0000 </r>
       <r>    -4.8998     0.0000     0.0000 </r>
       <r>    -4.8026     0.0000     0.0000 </r>
       <r>    -4.7053     0.0000     0.0000 </r>
       <r>    -4.6081     0.0000     0.0000 </r>
       <r>    -4.5109     0.0000     0.0000 </r>
       <r>    -4.4136     0.0000     0.0000 </r>
       <r>    -4.3164     0.0000     0.0000 </r>
       <r>    -4.2192     0.0000     0.0000 </r>
       <r>    -4.1220     0.0000     0.0000 </r>
       <r>    -4.0247     0.0000     0.0000 </r>
       <r>    -3.9275     0.0000     0.0000 </r>
       <r>    -3.8303     0.0000     0.0000 </r>
       <r>    -3.7330     0.0000     0.0000 </r>
       <r>    -3.6358     0.0000     0.0000 </r>
       <r>    -3.5386     0.0000     0.0000 </r>
       <r>    -3.4413     0.0000     0.0000 </r>
       <r>    -3.3441     0.0000     0.0000 </r>
       <r>    -3.2469     0.0000     0.0000 </r>
       <r>    -3.1497     0.0000     0.0000 </r>
       <r>    -3.0524     0.0000     0.0000 </r>
       <r>    -2.9552     0.0000     0.0000 </r>
       <r>    -2.8580     0.0000     0.0000 </r>
       <r>    -2.7607     0.0000     0.0000 </r>
       <r>    -2.6635     0.0000     0.0000 </r>
       <r>    -2.5663     0.0000     0.0000 </r>
       <r>    -2.4690     0.0000     0.0000 </r>
       <r>    -2.3718     0.0000     0.0000 </r>
       <r>    -2.2746     0.0000     0.0000 </r>
       <r>    -2.1774     0.0000     0.0000 </r>
       <r>    -2.0801     0.0000     0.0000 </r>
       <r>    -1.9829     0.0000     0.0000 </r>
       <r>    -1.8857     0.0000     0.0000 </r>
       <r>    -1.7884     0.0000     0.0000 </r>
       <r>    -1.6912     0.0000     0.0000 </r>
       <r>    -1.5940     0.0000     0.0000 </r>
       <r>    -1.4967     0.0000     0.0000 </r>
       <r>    -1.3995     0.0000     0.0000 </r>
       <r>    -1.3023     0.0000     0.0000 </r>
       <r>    -1.2051     0.0000     0.0000 </r>
       <r>    -1.1078     0.0000     0.0000 </r>
       <r>    -1.0106     0.0000     0.0000 </r>
       <r>    -0.9134     0.0000     0.0000 </r>
       <r>    -0.8161     0.0000     0.0000 </r>
       <r>    -0.7189     0.0000     0.0000 </r>
       <r>    -0.6217     0.0000     0.0000 </r>
       <r>    -0.5244     0.0000     0.0000 </r>
       <r>    -0.4272     0.0000     0.0000 </r>
       <r>    -0.3300     0.0000     0.0000 </r>
       <r>    -0.2328     0.0000     0.0000 </r>
       <r>    -0.1355     0.0000     0.0000 </r>
       <r>    -0.0383     0.0000     0.0000 </r>
       <r>     0.0589     0.0000     0.0000 </r>
       <r>     0.1562     0.0000     0.0000 </r>
       <r>     0.2534     0.0000     0.0000 </r>
       <r>     0.3506     0.0000     0.0000 </r>
       <r>     0.4479     0.0000     0.0000 </r>
       <r>     0.5451     0.0000     0.0000 </r>
       <r>     0.6423     0.0000     0.0000 </r>
       <r>     0.7395     0.0000     0.0000 </r>
       <r>     0.8368     0.0000     0.0000 </r>
       <r>     0.9340     0.0000     0.0000 </r>
       <r>     1.0312     0.0000     0.0000 </r>
       <r>     1.1285     0.0000     0.0000 </r>
       <r>     1.2257     0.0000     0.0000 </r>
       <r>     1.3229     0.0000     0.0000 </r>
       <r>     1.4202     0.0000     0.0000 </r>
       <r>     1.5174     0.0000     0.0000 </r>
       <r>     1.6146     0.0000     0.0000 </r>
       <r>     1.7118     0.0000     0.0000 </r>
       <r>     1.8091     0.0000     0.0000 </r>
       <r>     1.9063     0.0000     0.0000 </r>
       <r>     2.0035     0.0000     0.0000 </r>
       <r>     2.1008     0.0000     0.0000 </r>
       <r>     2.1980     0.0000     0.0000 </r>
       <r>     2.2952     0.0000     0.0000 </r>
       <r>     2.3925     0.0000     0.0000 </r>
       <r>     2.4897     0.0000     0.0000 </r>
       <r>     2.5869     0.0000     0.0000 </r>
       <r>     2.6841     0.0000     0.0000 </r>
       <r>     2.7814     0.0000     0.0000 </r>
       <r>     2.8786     0.0000     0.0000 </r>
       <r>     2.9758     0.0000     0.0000 </r>
       <r>     3.0731     0.0000     0.0000 </r>
       <r>     3.1703     0.0000     0.0000 </r>
       <r>     3.2675     0.0000     0.0000 </r>
       <r>     3.3648     0.0000     0.0000 </r>
       <r>     3.4620     0.0000     0.0000 </r>
       <r>     3.5592     0.0000     0.0000 </r>
       <r>     3.6564     0.0000     0.0000 </r>
       <r>     3.7537     0.0000     0.0000 </r>
       <r>     3.8509     0.0000     0.0000 </r>
       <r>     3.9481     0.0000     0.0000 </r>
       <r>     4.0454     0.0000     0.0000 </r>
       <r>     4.1426     0.0000     0.0000 </r>
       <r>     4.2398     0.0000     0.0000 </r>
       <r>     4.3371     0.0000     0.0000 </r>
       <r>     4.4343     0.0000     0.0000 </r>
       <r>     4.5315     0.0000     0.0000 </r>
       <r>     4.6287     0.0000     0.0000 </r>
       <r>     4.7260     0.0000     0.0000 </r>
       <r>     4.8232     0.0000     0.0000 </r>
       <r>     4.9204     0.0000     0.0000 </r>
       <r>     5.0177     0.0000     0.0000 </r>
       <r>     5.1149     0.0000     0.0000 </r>
       <r>     5.2121     0.0000     0.0000 </r>
       <r>     5.3094     0.0000     0.0000 </r>
       <r>     5.4066     0.0000     0.0000 </r>
       <r>     5.5038     0.0000     0.0000 </r>
       <r>     5.6010     0.0000     0.0000 </r>
       <r>     5.6983     0.0000     0.0000 </r>
       <r>     5.7955     0.0000     0.0000 </r>
       <r>     5.8927     0.0000     0.0000 </r>
       <r>     5.9900     0.0000     0.0000 </r>
       <r>     6.0872     0.0000     0.0000 </r>
       <r>     6.1844     0.0000     0.0000 </r>
       <r>     6.2817     0.0000     0.0000 </r>
       <r>     6.3789     0.0000     0.0000 </r>
       <r>     6.4761     0.0000     0.0000 </r>
       <r>     6.5733     0.0000     0.0000 </r>
       <r>     6.6706     0.0000     0.0000 </r>
       <r>     6.7678     0.0000     0.0000 </r>
       <r>     6.8650     0.0000     0.0000 </r>
       <r>     6.9623     0.0000     0.0000 </r>
       <r>     7.0595     0.0000     0.0000 </r>
       <r>     7.1567     0.0000     0.0000 </r>
       <r>     7.2540     0.0000     0.0000 </r>
       <r>     7.3512     0.0000     0.0000 </r>
       <r>     7.4484     0.0000     0.0000 </r>
       <r>     7.5456     0.0000     0.0000 </r>
       <r>     7.6429     0.0000     0.0000 </r>
       <r>     7.7401     0.0000     0.0000 </r>
       <r>     7.8373     0.0000     0.0000 </r>
       <r>     7.9346     0.0000     0.0000 </r>
       <r>     8.0318     0.0000     0.0000 </r>
       <r>     8.1290     0.0000     0.0000 </r>
       <r>     8.2263     0.0000     0.0000 </r>
       <r>     8.3235     0.0000     0.0000 </r>
       <r>     8.4207     0.0000     0.0000 </r>
       <r>     8.5179     0.0000     0.0000 </r>
       <r>     8.6152     0.0000     0.0000 </r>
       <r>     8.7124     0.0000     0.0000 </r>
       <r>     8.8096     0.0000     0.0000 </r>
       <r>     8.9069     0.0000     0.0000 </r>
       <r>     9.0041     0.0000     0.0000 </r>
       <r>     9.1013     0.0000     0.0000 </r>
       <r>     9.1986     0.0000     0.0000 </r>
       <r>     9.2958     0.0000     0.0000 </r>
       <r>     9.3930     0.0000     0.0000 </r>
       <r>     9.4902     0.0000     0.0000 </r>
       <r>     9.5875     0.0000     0.0000 </r>
       <r>     9.6847     0.0000     0.0000 </r>
       <r>     9.7819     0.0000     0.0000 </r>
       <r>     9.8792     0.0000     0.0000 </r>
       <r>     9.9764     0.0000     0.0000 </r>
       <r>    10.0736     0.0000     0.0000 </r>
       <r>    10.1709     0.0000     0.0000 </r>
       <r>    10.2681     0.0000     0.0000 </r>
       <r>    10.3653     0.0000     0.0000 </r>
       <r>    10.4625     0.0000     0.0000 </r>
       <r>    10.5598     0.0000     0.0000 </r>
       <r>    10.6570     0.0000     0.0000 </r>
       <r>    10.7542     0.0000     0.0000 </r>
       <r>    10.8515     0.0000     0.0000 </r>
       <r>    10.9487     0.0000     0.0000 </r>
       <r>    11.0459     0.0000     0.0000 </r>
       <r>    11.1432     0.0000     0.0000 </r>
       <r>    11.2404     0.0000     0.0000 </r>
       <r>    11.3376     0.0000     0.0000 </r>
       <r>    11.4348     0.0000     0.0000 </r>
       <r>    11.5321     0.0000     0.0000 </r>
       <r>    11.6293     0.0000     0.0000 </r>
       <r>    11.7265     0.0000     0.0000 </r>
       <r>    11.8238     0.0000     0.0000 </r>
       <r>    11.9210     0.0000     0.0000 </r>
       <r>    12.0182     0.0000     0.0000 </r>
       <r>    12.1155     0.0000     0.0000 </r>
       <r>    12.2127     0.0000     0.0000 </r>
       <r>    12.3099     0.0000     0.0000 </r>
       <r>    12.4071     0.0000     0.0000 </r>
       <r>    12.5044     0.0000     0.0000 </r>
       <r>    12.6016     0.0000     0.0000 </r>
       <r>    12.6988     0.0000     0.0000 </r>
       <r>    12.7961     0.0000     0.0000 </r>
       <r>    12.8933     0.0000     0.0000 </r>
       <r>    12.9905     0.0000     0.0000 </r>
       <r>    13.0878     0.0000     0.0000 </r>
       <r>    13.1850     0.0000     0.0000 </r>
       <r>    13.2822     0.0000     0.0000 </r>
       <r>    13.3794     0.0000     0.0000 </r>
       <r>    13.4767     0.0000     0.0000 </r>
       <r>    13.5739     0.0000     0.0000 </r>
       <r>    13.6711     0.0000     0.0000 </r>
       <r>    13.7684     0.0000     0.0000 </r>
       <r>    13.8656     0.0000     0.0000 </r>
       <r>    13.9628     0.0000     0.0000 </r>
       <r>    14.0601     0.0000     0.0000 </r>
       <r>    14.1573     0.0000     0.0000 </r>
       <r>    14.2545     0.0000     0.0000 </r>
       <r>    14.3517     0.0000     0.0000 </r>
       <r>    14.4490     0.0000     0.0000 </r>
       <r>    14.5462     0.0000     0.0000 </r>
       <r>    14.6434     0.0000     0.0000 </r>
       <r>    14.7407     0.0000     0.0000 </r>
      </set>
     </set>
    </array>
   </total>
  </dos>
 </calculation>
 <structure name="finalpos" >
  <crystal>
   <varray name="basis" >
    <v>       0.00000000       3.28759630       3.28759630 </v>
    <v>       3.28759630       0.00000000       3.28759630 </v>
    <v>       3.28759630       3.28759630       0.00000000 </v>
   </varray>
   <i name="volume">     71.06658469 </i>
   <varray name="rec_basis" >
    <v>      -0.15208680       0.15208680       0.15208680 </v>
    <v>       0.15208680      -0.15208680       0.15208680 </v>
    <v>       0.15208680       0.15208680      -0.15208680 </v>
   </varray>
  </crystal>
  <varray name="positions" >
   <v>       0.00000000       0.00000000       0.00000000 </v>
   <v>       0.50000000       0.50000000       0.50000000 </v>
  </varray>
 </structure>
</modeling>
