 vasp.5.4.4.18Apr17-6-g9f103f2a35 (build Mar 20 2018 18:01:20) complex           
 executed on             LinuxGNU date 2020.04.24  12:03:34
 running on    8 total cores
 distrk:  each k-point on    8 cores,    1 groups
 distr:  one band on NCORES_PER_BAND=   1 cores,    8 groups


--------------------------------------------------------------------------------------------------------


 INCAR:
 POTCAR:    PAW_PBE Sn_d 06Sep2000                
 POTCAR:    PAW_PBE Se 06Sep2000                  

 ----------------------------------------------------------------------------- 
|                                                                             |
|           W    W    AA    RRRRR   N    N  II  N    N   GGGG   !!!           |
|           W    W   A  A   R    R  NN   N  II  NN   N  G    G  !!!           |
|           W    W  A    A  R    R  N N  N  II  N N  N  G       !!!           |
|           W WW W  AAAAAA  RRRRR   N  N N  II  N  N N  G  GGG   !            |
|           WW  WW  A    A  R   R   N   NN  II  N   NN  G    G                |
|           W    W  A    A  R    R  N    N  II  N    N   GGGG   !!!           |
|                                                                             |
|      For optimal performance we recommend to set                            |
|        NCORE= 4 - approx SQRT( number of cores)                             |
|      NCORE specifies how many cores store one orbital (NPAR=cpu/NCORE).     |
|      This setting can  greatly improve the performance of VASP for DFT.     |
|      The default,   NCORE=1            might be grossly inefficient         |
|      on modern multi-core architectures or massively parallel machines.     |
|      Do your own testing !!!!                                               |
|      Unfortunately you need to use the default for GW and RPA calculations. |
|      (for HF NCORE is supported but not extensively tested yet)             |
|                                                                             |
 ----------------------------------------------------------------------------- 

 POTCAR:    PAW_PBE Sn_d 06Sep2000                
   VRHFIN =Sn: s2p2                                                             
   LEXCH  = PE                                                                  
   EATOM  =  1893.1092 eV,  139.1396 Ry                                         
                                                                                
   TITEL  = PAW_PBE Sn_d 06Sep2000                                              
   LULTRA =        F    use ultrasoft PP ?                                      
   IUNSCR =        1    unscreen: 0-lin 1-nonlin 2-no                           
   RPACOR =    2.300    partial core radius                                     
   POMASS =  118.710; ZVAL   =   14.000    mass and valenz                      
   RCORE  =    2.500    outmost cutoff radius                                   
   RWIGS  =    2.960; RWIGS  =    1.566    wigner-seitz radius (au A)           
   ENMAX  =  241.083; ENMIN  =  180.812 eV                                      
   ICORE  =        3    local potential                                         
   LCOR   =        T    correct aug charges                                     
   LPAW   =        T    paw PP                                                  
   EAUG   =  439.825                                                            
   DEXC   =    0.000                                                            
   RMAX   =    2.560    core radius for proj-oper                               
   RAUG   =    1.300    factor for augmentation sphere                          
   RDEP   =    2.659    radius for radial grids                                 
   RDEPT  =    2.046    core radius for aug-charge                              
                                                                                
   Atomic configuration                                                         
   12 entries                                                                   
     n  l   j            E        occ.                                          
     1  0  0.50    -29007.2859   2.0000                                         
     2  0  0.50     -4378.8056   2.0000                                         
     2  1  1.50     -3930.4293   6.0000                                         
     3  0  0.50      -845.0264   2.0000                                         
     3  1  1.50      -698.5725   6.0000                                         
     3  2  2.50      -473.2839  10.0000                                         
     4  0  0.50      -133.9036   2.0000                                         
     4  1  1.50       -89.6752   6.0000                                         
     4  2  2.50       -25.8375  10.0000                                         
     5  0  0.50       -10.5484   2.0000                                         
     5  1  0.50        -3.6940   2.0000                                         
     4  3  2.50        -2.7416   0.0000                                         
   Description                                                                  
     l       E           TYP  RCUT    TYP  RCUT                                 
     2    -25.8374624     23  2.500                                             
     2     -5.4423304     23  2.500                                             
     0    -10.5483727     23  2.500                                             
     0     13.6058260     23  2.500                                             
     1     -3.6939829     23  2.500                                             
     1      1.9821976     23  2.500                                             
     3     -1.3605826      7  2.500                                             
  local pseudopotential read in
  partial core-charges read in
  partial kinetic energy density read in
  atomic valenz-charges read in
  non local Contribution for L=           2  read in
    real space projection operators read in
  non local Contribution for L=           2  read in
    real space projection operators read in
  non local Contribution for L=           0  read in
    real space projection operators read in
  non local Contribution for L=           0  read in
    real space projection operators read in
  non local Contribution for L=           1  read in
    real space projection operators read in
  non local Contribution for L=           1  read in
    real space projection operators read in
    PAW grid and wavefunctions read in

   number of l-projection  operators is LMAX  =           6
   number of lm-projection operators is LMMAX =          18

 POTCAR:    PAW_PBE Se 06Sep2000                  
   VRHFIN =Se: s2p4                                                             
   LEXCH  = PE                                                                  
   EATOM  =   257.1286 eV,   18.8984 Ry                                         
                                                                                
   TITEL  = PAW_PBE Se 06Sep2000                                                
   LULTRA =        F    use ultrasoft PP ?                                      
   IUNSCR =        1    unscreen: 0-lin 1-nonlin 2-no                           
   RPACOR =    1.900    partial core radius                                     
   POMASS =   78.960; ZVAL   =    6.000    mass and valenz                      
   RCORE  =    2.100    outmost cutoff radius                                   
   RWIGS  =    2.200; RWIGS  =    1.164    wigner-seitz radius (au A)           
   ENMAX  =  211.555; ENMIN  =  158.666 eV                                      
   ICORE  =        3    local potential                                         
   LCOR   =        T    correct aug charges                                     
   LPAW   =        T    paw PP                                                  
   EAUG   =  446.842                                                            
   DEXC   =    0.000                                                            
   RMAX   =    2.147    core radius for proj-oper                               
   RAUG   =    1.300    factor for augmentation sphere                          
   RDEP   =    2.177    radius for radial grids                                 
   RDEPT  =    1.928    core radius for aug-charge                              
                                                                                
   Atomic configuration                                                         
   10 entries                                                                   
     n  l   j            E        occ.                                          
     1  0  0.50    -12503.4787   2.0000                                         
     2  0  0.50     -1606.9547   2.0000                                         
     2  1  1.50     -1413.3140   6.0000                                         
     3  0  0.50      -213.4885   2.0000                                         
     3  1  1.50      -152.9538   6.0000                                         
     3  2  2.50       -53.1221  10.0000                                         
     4  0  0.50       -17.2865   2.0000                                         
     4  1  0.50        -6.5110   4.0000                                         
     4  2  2.50        -6.8029   0.0000                                         
     4  3  2.50        -6.8029   0.0000                                         
   Description                                                                  
     l       E           TYP  RCUT    TYP  RCUT                                 
     0    -17.2865377     23  2.100                                             
     0    -15.3094411     23  2.100                                             
     1     -6.5110275     23  2.100                                             
     1     -0.0695192     23  2.100                                             
     2     -6.8029130     23  2.100                                             
     3     -1.3605826      7  2.100                                             
  local pseudopotential read in
  partial core-charges read in
  partial kinetic energy density read in
  atomic valenz-charges read in
  non local Contribution for L=           0  read in
    real space projection operators read in
  non local Contribution for L=           0  read in
    real space projection operators read in
  non local Contribution for L=           1  read in
    real space projection operators read in
  non local Contribution for L=           1  read in
    real space projection operators read in
  non local Contribution for L=           2  read in
    real space projection operators read in
    PAW grid and wavefunctions read in

   number of l-projection  operators is LMAX  =           5
   number of lm-projection operators is LMMAX =          13

  PAW_PBE Sn_d 06Sep2000                :
 energy of atom  1       EATOM=-1893.1092
 kinetic energy error for atom=    0.0010 (will be added to EATOM!!)
  PAW_PBE Se 06Sep2000                  :
 energy of atom  2       EATOM= -257.1286
 kinetic energy error for atom=    0.0006 (will be added to EATOM!!)


 POSCAR: Sn4 Se4                                 
  positions in direct lattice
  No initial velocities read in
 exchange correlation table for  LEXCH =        8
   RHO(1)=    0.500       N(1)  =     2000
   RHO(2)=  100.500       N(2)  =     4000



--------------------------------------------------------------------------------------------------------


 ion  position               nearest neighbor table
   1  0.250  0.112  0.117-   7 2.79   5 2.80   5 2.80   2 3.56   2 3.56
   2  0.750  0.888  0.883-   8 2.79   6 2.80   6 2.80   1 3.56   1 3.56
   3  0.750  0.612  0.383-   5 2.79   7 2.80   7 2.80   4 3.56   4 3.56
   4  0.250  0.388  0.617-   6 2.79   8 2.80   8 2.80   3 3.56   3 3.56
   5  0.750  0.519  0.145-   3 2.79   1 2.80   1 2.80
   6  0.250  0.481  0.855-   4 2.79   2 2.80   2 2.80
   7  0.250  0.019  0.355-   1 2.79   3 2.80   3 2.80
   8  0.750  0.981  0.645-   2 2.79   4 2.80   4 2.80

  LATTYP: Found a simple orthorhombic cell.
 ALAT       =     4.1684222500
 B/A-ratio  =     1.0890621410
 C/A-ratio  =     2.7752706986
  
  Lattice vectors:
  
 A1 = (   4.1684222500,   0.0000000000,   0.0000000000)
 A2 = (   0.0000000000,   4.5396708600,   0.0000000000)
 A3 = (   0.0000000000,   0.0000000000,  11.5685001300)


Analysis of symmetry for initial positions (statically):
=====================================================================
 Subroutine PRICEL returns:
 Original cell was already a primitive cell.
 

 Routine SETGRP: Setting up the symmetry group for a 
 simple orthorhombic supercell.


 Subroutine GETGRP returns: Found  8 space group operations
 (whereof  2 operations were pure point group operations)
 out of a pool of  8 trial point group operations.


The static configuration has the point symmetry S_2 .
 The point group associated with its full space group is D_2h.


Analysis of symmetry for dynamics (positions and initial velocities):
=====================================================================
 Subroutine PRICEL returns:
 Original cell was already a primitive cell.
 

 Routine SETGRP: Setting up the symmetry group for a 
 simple orthorhombic supercell.


 Subroutine GETGRP returns: Found  8 space group operations
 (whereof  2 operations were pure point group operations)
 out of a pool of  8 trial point group operations.


The dynamic configuration has the point symmetry S_2 .
 The point group associated with its full space group is D_2h.


 Subroutine INISYM returns: Found  8 space group operations
 (whereof  2 operations are pure point group operations),
 and found     1 'primitive' translations



 KPOINTS: Kpoints with grid resolution = 0.030 / A

Automatic generation of k-mesh.
Space group operators:
 irot       det(A)        alpha          n_x          n_y          n_z        tau_x        tau_y        tau_z
    1     1.000000     0.000000     1.000000     0.000000     0.000000     0.000000     0.000000     0.000000
    2    -1.000000     0.000000     1.000000     0.000000     0.000000     0.000000     0.000000     0.000000
    3     1.000000   180.000000    -0.000000    -0.000000     1.000000     0.500000     0.500000     0.500000
    4    -1.000000   180.000000    -0.000000    -0.000000     1.000000     0.500000     0.500000     0.500000
    5     1.000000   180.000000     0.000000     1.000000     0.000000     0.000000     0.500000     0.500000
    6    -1.000000   180.000000     0.000000     1.000000     0.000000     0.000000     0.500000     0.500000
    7     1.000000   180.000000     1.000000    -0.000000     0.000000     0.500000     0.000000     0.000000
    8    -1.000000   180.000000     1.000000    -0.000000     0.000000     0.500000     0.000000     0.000000
 
 Subroutine IBZKPT returns following result:
 ===========================================
 
 Found     75 irreducible k-points:
 
 Following reciprocal coordinates:
            Coordinates               Weight
  0.000000  0.000000  0.000000      1.000000
  0.125000  0.000000  0.000000      2.000000
  0.250000  0.000000  0.000000      2.000000
  0.375000  0.000000  0.000000      2.000000
  0.500000  0.000000  0.000000      1.000000
  0.000000  0.125000  0.000000      2.000000
  0.125000  0.125000  0.000000      4.000000
  0.250000  0.125000  0.000000      4.000000
  0.375000  0.125000  0.000000      4.000000
  0.500000  0.125000  0.000000      2.000000
  0.000000  0.250000  0.000000      2.000000
  0.125000  0.250000  0.000000      4.000000
  0.250000  0.250000  0.000000      4.000000
  0.375000  0.250000  0.000000      4.000000
  0.500000  0.250000  0.000000      2.000000
  0.000000  0.375000  0.000000      2.000000
  0.125000  0.375000  0.000000      4.000000
  0.250000  0.375000  0.000000      4.000000
  0.375000  0.375000  0.000000      4.000000
  0.500000  0.375000  0.000000      2.000000
  0.000000  0.500000  0.000000      1.000000
  0.125000  0.500000  0.000000      2.000000
  0.250000  0.500000  0.000000      2.000000
  0.375000  0.500000  0.000000      2.000000
  0.500000  0.500000  0.000000      1.000000
  0.000000  0.000000  0.250000      2.000000
  0.125000  0.000000  0.250000      4.000000
  0.250000  0.000000  0.250000      4.000000
  0.375000  0.000000  0.250000      4.000000
  0.500000  0.000000  0.250000      2.000000
  0.000000  0.125000  0.250000      4.000000
  0.125000  0.125000  0.250000      8.000000
  0.250000  0.125000  0.250000      8.000000
  0.375000  0.125000  0.250000      8.000000
  0.500000  0.125000  0.250000      4.000000
  0.000000  0.250000  0.250000      4.000000
  0.125000  0.250000  0.250000      8.000000
  0.250000  0.250000  0.250000      8.000000
  0.375000  0.250000  0.250000      8.000000
  0.500000  0.250000  0.250000      4.000000
  0.000000  0.375000  0.250000      4.000000
  0.125000  0.375000  0.250000      8.000000
  0.250000  0.375000  0.250000      8.000000
  0.375000  0.375000  0.250000      8.000000
  0.500000  0.375000  0.250000      4.000000
  0.000000  0.500000  0.250000      2.000000
  0.125000  0.500000  0.250000      4.000000
  0.250000  0.500000  0.250000      4.000000
  0.375000  0.500000  0.250000      4.000000
  0.500000  0.500000  0.250000      2.000000
  0.000000  0.000000  0.500000      1.000000
  0.125000  0.000000  0.500000      2.000000
  0.250000  0.000000  0.500000      2.000000
  0.375000  0.000000  0.500000      2.000000
  0.500000  0.000000  0.500000      1.000000
  0.000000  0.125000  0.500000      2.000000
  0.125000  0.125000  0.500000      4.000000
  0.250000  0.125000  0.500000      4.000000
  0.375000  0.125000  0.500000      4.000000
  0.500000  0.125000  0.500000      2.000000
  0.000000  0.250000  0.500000      2.000000
  0.125000  0.250000  0.500000      4.000000
  0.250000  0.250000  0.500000      4.000000
  0.375000  0.250000  0.500000      4.000000
  0.500000  0.250000  0.500000      2.000000
  0.000000  0.375000  0.500000      2.000000
  0.125000  0.375000  0.500000      4.000000
  0.250000  0.375000  0.500000      4.000000
  0.375000  0.375000  0.500000      4.000000
  0.500000  0.375000  0.500000      2.000000
  0.000000  0.500000  0.500000      1.000000
  0.125000  0.500000  0.500000      2.000000
  0.250000  0.500000  0.500000      2.000000
  0.375000  0.500000  0.500000      2.000000
  0.500000  0.500000  0.500000      1.000000
 
 Following cartesian coordinates:
            Coordinates               Weight
  0.000000  0.000000  0.000000      1.000000
  0.029987  0.000000  0.000000      2.000000
  0.059975  0.000000  0.000000      2.000000
  0.089962  0.000000  0.000000      2.000000
  0.119949  0.000000  0.000000      1.000000
  0.000000  0.027535  0.000000      2.000000
  0.029987  0.027535  0.000000      4.000000
  0.059975  0.027535  0.000000      4.000000
  0.089962  0.027535  0.000000      4.000000
  0.119949  0.027535  0.000000      2.000000
  0.000000  0.055070  0.000000      2.000000
  0.029987  0.055070  0.000000      4.000000
  0.059975  0.055070  0.000000      4.000000
  0.089962  0.055070  0.000000      4.000000
  0.119949  0.055070  0.000000      2.000000
  0.000000  0.082605  0.000000      2.000000
  0.029987  0.082605  0.000000      4.000000
  0.059975  0.082605  0.000000      4.000000
  0.089962  0.082605  0.000000      4.000000
  0.119949  0.082605  0.000000      2.000000
  0.000000  0.110140  0.000000      1.000000
  0.029987  0.110140  0.000000      2.000000
  0.059975  0.110140  0.000000      2.000000
  0.089962  0.110140  0.000000      2.000000
  0.119949  0.110140  0.000000      1.000000
  0.000000  0.000000  0.021610      2.000000
  0.029987  0.000000  0.021610      4.000000
  0.059975  0.000000  0.021610      4.000000
  0.089962  0.000000  0.021610      4.000000
  0.119949  0.000000  0.021610      2.000000
  0.000000  0.027535  0.021610      4.000000
  0.029987  0.027535  0.021610      8.000000
  0.059975  0.027535  0.021610      8.000000
  0.089962  0.027535  0.021610      8.000000
  0.119949  0.027535  0.021610      4.000000
  0.000000  0.055070  0.021610      4.000000
  0.029987  0.055070  0.021610      8.000000
  0.059975  0.055070  0.021610      8.000000
  0.089962  0.055070  0.021610      8.000000
  0.119949  0.055070  0.021610      4.000000
  0.000000  0.082605  0.021610      4.000000
  0.029987  0.082605  0.021610      8.000000
  0.059975  0.082605  0.021610      8.000000
  0.089962  0.082605  0.021610      8.000000
  0.119949  0.082605  0.021610      4.000000
  0.000000  0.110140  0.021610      2.000000
  0.029987  0.110140  0.021610      4.000000
  0.059975  0.110140  0.021610      4.000000
  0.089962  0.110140  0.021610      4.000000
  0.119949  0.110140  0.021610      2.000000
  0.000000  0.000000  0.043221      1.000000
  0.029987  0.000000  0.043221      2.000000
  0.059975  0.000000  0.043221      2.000000
  0.089962  0.000000  0.043221      2.000000
  0.119949  0.000000  0.043221      1.000000
  0.000000  0.027535  0.043221      2.000000
  0.029987  0.027535  0.043221      4.000000
  0.059975  0.027535  0.043221      4.000000
  0.089962  0.027535  0.043221      4.000000
  0.119949  0.027535  0.043221      2.000000
  0.000000  0.055070  0.043221      2.000000
  0.029987  0.055070  0.043221      4.000000
  0.059975  0.055070  0.043221      4.000000
  0.089962  0.055070  0.043221      4.000000
  0.119949  0.055070  0.043221      2.000000
  0.000000  0.082605  0.043221      2.000000
  0.029987  0.082605  0.043221      4.000000
  0.059975  0.082605  0.043221      4.000000
  0.089962  0.082605  0.043221      4.000000
  0.119949  0.082605  0.043221      2.000000
  0.000000  0.110140  0.043221      1.000000
  0.029987  0.110140  0.043221      2.000000
  0.059975  0.110140  0.043221      2.000000
  0.089962  0.110140  0.043221      2.000000
  0.119949  0.110140  0.043221      1.000000
 
 TETIRR: Found    768 inequivalent tetrahedra from     1536
 
 Subroutine IBZKPT_HF returns following result:
 ==============================================
 
 Found    256 k-points in 1st BZ
 the following    256 k-points will be used (e.g. in the exchange kernel)
 Following reciprocal coordinates:   # in IRBZ
  0.000000  0.000000  0.000000    0.00390625   1 t-inv F
  0.125000  0.000000  0.000000    0.00390625   2 t-inv F
  0.250000  0.000000  0.000000    0.00390625   3 t-inv F
  0.375000  0.000000  0.000000    0.00390625   4 t-inv F
  0.500000  0.000000  0.000000    0.00390625   5 t-inv F
  0.000000  0.125000  0.000000    0.00390625   6 t-inv F
  0.125000  0.125000  0.000000    0.00390625   7 t-inv F
  0.250000  0.125000  0.000000    0.00390625   8 t-inv F
  0.375000  0.125000  0.000000    0.00390625   9 t-inv F
  0.500000  0.125000  0.000000    0.00390625  10 t-inv F
  0.000000  0.250000  0.000000    0.00390625  11 t-inv F
  0.125000  0.250000  0.000000    0.00390625  12 t-inv F
  0.250000  0.250000  0.000000    0.00390625  13 t-inv F
  0.375000  0.250000  0.000000    0.00390625  14 t-inv F
  0.500000  0.250000  0.000000    0.00390625  15 t-inv F
  0.000000  0.375000  0.000000    0.00390625  16 t-inv F
  0.125000  0.375000  0.000000    0.00390625  17 t-inv F
  0.250000  0.375000  0.000000    0.00390625  18 t-inv F
  0.375000  0.375000  0.000000    0.00390625  19 t-inv F
  0.500000  0.375000  0.000000    0.00390625  20 t-inv F
  0.000000  0.500000  0.000000    0.00390625  21 t-inv F
  0.125000  0.500000  0.000000    0.00390625  22 t-inv F
  0.250000  0.500000  0.000000    0.00390625  23 t-inv F
  0.375000  0.500000  0.000000    0.00390625  24 t-inv F
  0.500000  0.500000  0.000000    0.00390625  25 t-inv F
  0.000000  0.000000  0.250000    0.00390625  26 t-inv F
  0.125000  0.000000  0.250000    0.00390625  27 t-inv F
  0.250000  0.000000  0.250000    0.00390625  28 t-inv F
  0.375000  0.000000  0.250000    0.00390625  29 t-inv F
  0.500000  0.000000  0.250000    0.00390625  30 t-inv F
  0.000000  0.125000  0.250000    0.00390625  31 t-inv F
  0.125000  0.125000  0.250000    0.00390625  32 t-inv F
  0.250000  0.125000  0.250000    0.00390625  33 t-inv F
  0.375000  0.125000  0.250000    0.00390625  34 t-inv F
  0.500000  0.125000  0.250000    0.00390625  35 t-inv F
  0.000000  0.250000  0.250000    0.00390625  36 t-inv F
  0.125000  0.250000  0.250000    0.00390625  37 t-inv F
  0.250000  0.250000  0.250000    0.00390625  38 t-inv F
  0.375000  0.250000  0.250000    0.00390625  39 t-inv F
  0.500000  0.250000  0.250000    0.00390625  40 t-inv F
  0.000000  0.375000  0.250000    0.00390625  41 t-inv F
  0.125000  0.375000  0.250000    0.00390625  42 t-inv F
  0.250000  0.375000  0.250000    0.00390625  43 t-inv F
  0.375000  0.375000  0.250000    0.00390625  44 t-inv F
  0.500000  0.375000  0.250000    0.00390625  45 t-inv F
  0.000000  0.500000  0.250000    0.00390625  46 t-inv F
  0.125000  0.500000  0.250000    0.00390625  47 t-inv F
  0.250000  0.500000  0.250000    0.00390625  48 t-inv F
  0.375000  0.500000  0.250000    0.00390625  49 t-inv F
  0.500000  0.500000  0.250000    0.00390625  50 t-inv F
  0.000000  0.000000  0.500000    0.00390625  51 t-inv F
  0.125000  0.000000  0.500000    0.00390625  52 t-inv F
  0.250000  0.000000  0.500000    0.00390625  53 t-inv F
  0.375000  0.000000  0.500000    0.00390625  54 t-inv F
  0.500000  0.000000  0.500000    0.00390625  55 t-inv F
  0.000000  0.125000  0.500000    0.00390625  56 t-inv F
  0.125000  0.125000  0.500000    0.00390625  57 t-inv F
  0.250000  0.125000  0.500000    0.00390625  58 t-inv F
  0.375000  0.125000  0.500000    0.00390625  59 t-inv F
  0.500000  0.125000  0.500000    0.00390625  60 t-inv F
  0.000000  0.250000  0.500000    0.00390625  61 t-inv F
  0.125000  0.250000  0.500000    0.00390625  62 t-inv F
  0.250000  0.250000  0.500000    0.00390625  63 t-inv F
  0.375000  0.250000  0.500000    0.00390625  64 t-inv F
  0.500000  0.250000  0.500000    0.00390625  65 t-inv F
  0.000000  0.375000  0.500000    0.00390625  66 t-inv F
  0.125000  0.375000  0.500000    0.00390625  67 t-inv F
  0.250000  0.375000  0.500000    0.00390625  68 t-inv F
  0.375000  0.375000  0.500000    0.00390625  69 t-inv F
  0.500000  0.375000  0.500000    0.00390625  70 t-inv F
  0.000000  0.500000  0.500000    0.00390625  71 t-inv F
  0.125000  0.500000  0.500000    0.00390625  72 t-inv F
  0.250000  0.500000  0.500000    0.00390625  73 t-inv F
  0.375000  0.500000  0.500000    0.00390625  74 t-inv F
  0.500000  0.500000  0.500000    0.00390625  75 t-inv F
 -0.125000 -0.000000 -0.000000    0.00390625   2 t-inv F
 -0.250000 -0.000000 -0.000000    0.00390625   3 t-inv F
 -0.375000 -0.000000 -0.000000    0.00390625   4 t-inv F
 -0.000000 -0.125000 -0.000000    0.00390625   6 t-inv F
 -0.125000 -0.125000 -0.000000    0.00390625   7 t-inv F
 -0.125000  0.125000 -0.000000    0.00390625   7 t-inv F
  0.125000 -0.125000  0.000000    0.00390625   7 t-inv F
 -0.250000 -0.125000 -0.000000    0.00390625   8 t-inv F
 -0.250000  0.125000 -0.000000    0.00390625   8 t-inv F
  0.250000 -0.125000  0.000000    0.00390625   8 t-inv F
 -0.375000 -0.125000 -0.000000    0.00390625   9 t-inv F
 -0.375000  0.125000 -0.000000    0.00390625   9 t-inv F
  0.375000 -0.125000  0.000000    0.00390625   9 t-inv F
 -0.500000 -0.125000 -0.000000    0.00390625  10 t-inv F
 -0.000000 -0.250000 -0.000000    0.00390625  11 t-inv F
 -0.125000 -0.250000 -0.000000    0.00390625  12 t-inv F
 -0.125000  0.250000 -0.000000    0.00390625  12 t-inv F
  0.125000 -0.250000  0.000000    0.00390625  12 t-inv F
 -0.250000 -0.250000 -0.000000    0.00390625  13 t-inv F
 -0.250000  0.250000 -0.000000    0.00390625  13 t-inv F
  0.250000 -0.250000  0.000000    0.00390625  13 t-inv F
 -0.375000 -0.250000 -0.000000    0.00390625  14 t-inv F
 -0.375000  0.250000 -0.000000    0.00390625  14 t-inv F
  0.375000 -0.250000  0.000000    0.00390625  14 t-inv F
 -0.500000 -0.250000 -0.000000    0.00390625  15 t-inv F
 -0.000000 -0.375000 -0.000000    0.00390625  16 t-inv F
 -0.125000 -0.375000 -0.000000    0.00390625  17 t-inv F
 -0.125000  0.375000 -0.000000    0.00390625  17 t-inv F
  0.125000 -0.375000  0.000000    0.00390625  17 t-inv F
 -0.250000 -0.375000 -0.000000    0.00390625  18 t-inv F
 -0.250000  0.375000 -0.000000    0.00390625  18 t-inv F
  0.250000 -0.375000  0.000000    0.00390625  18 t-inv F
 -0.375000 -0.375000 -0.000000    0.00390625  19 t-inv F
 -0.375000  0.375000 -0.000000    0.00390625  19 t-inv F
  0.375000 -0.375000  0.000000    0.00390625  19 t-inv F
 -0.500000 -0.375000 -0.000000    0.00390625  20 t-inv F
 -0.125000 -0.500000 -0.000000    0.00390625  22 t-inv F
 -0.250000 -0.500000 -0.000000    0.00390625  23 t-inv F
 -0.375000 -0.500000 -0.000000    0.00390625  24 t-inv F
 -0.000000 -0.000000 -0.250000    0.00390625  26 t-inv F
 -0.125000 -0.000000 -0.250000    0.00390625  27 t-inv F
 -0.125000 -0.000000  0.250000    0.00390625  27 t-inv F
  0.125000  0.000000 -0.250000    0.00390625  27 t-inv F
 -0.250000 -0.000000 -0.250000    0.00390625  28 t-inv F
 -0.250000 -0.000000  0.250000    0.00390625  28 t-inv F
  0.250000  0.000000 -0.250000    0.00390625  28 t-inv F
 -0.375000 -0.000000 -0.250000    0.00390625  29 t-inv F
 -0.375000 -0.000000  0.250000    0.00390625  29 t-inv F
  0.375000  0.000000 -0.250000    0.00390625  29 t-inv F
 -0.500000 -0.000000 -0.250000    0.00390625  30 t-inv F
 -0.000000 -0.125000 -0.250000    0.00390625  31 t-inv F
 -0.000000 -0.125000  0.250000    0.00390625  31 t-inv F
  0.000000  0.125000 -0.250000    0.00390625  31 t-inv F
 -0.125000 -0.125000 -0.250000    0.00390625  32 t-inv F
 -0.125000 -0.125000  0.250000    0.00390625  32 t-inv F
  0.125000  0.125000 -0.250000    0.00390625  32 t-inv F
 -0.125000  0.125000 -0.250000    0.00390625  32 t-inv F
  0.125000 -0.125000  0.250000    0.00390625  32 t-inv F
  0.125000 -0.125000 -0.250000    0.00390625  32 t-inv F
 -0.125000  0.125000  0.250000    0.00390625  32 t-inv F
 -0.250000 -0.125000 -0.250000    0.00390625  33 t-inv F
 -0.250000 -0.125000  0.250000    0.00390625  33 t-inv F
  0.250000  0.125000 -0.250000    0.00390625  33 t-inv F
 -0.250000  0.125000 -0.250000    0.00390625  33 t-inv F
  0.250000 -0.125000  0.250000    0.00390625  33 t-inv F
  0.250000 -0.125000 -0.250000    0.00390625  33 t-inv F
 -0.250000  0.125000  0.250000    0.00390625  33 t-inv F
 -0.375000 -0.125000 -0.250000    0.00390625  34 t-inv F
 -0.375000 -0.125000  0.250000    0.00390625  34 t-inv F
  0.375000  0.125000 -0.250000    0.00390625  34 t-inv F
 -0.375000  0.125000 -0.250000    0.00390625  34 t-inv F
  0.375000 -0.125000  0.250000    0.00390625  34 t-inv F
  0.375000 -0.125000 -0.250000    0.00390625  34 t-inv F
 -0.375000  0.125000  0.250000    0.00390625  34 t-inv F
 -0.500000 -0.125000 -0.250000    0.00390625  35 t-inv F
 -0.500000 -0.125000  0.250000    0.00390625  35 t-inv F
  0.500000  0.125000 -0.250000    0.00390625  35 t-inv F
 -0.000000 -0.250000 -0.250000    0.00390625  36 t-inv F
 -0.000000 -0.250000  0.250000    0.00390625  36 t-inv F
  0.000000  0.250000 -0.250000    0.00390625  36 t-inv F
 -0.125000 -0.250000 -0.250000    0.00390625  37 t-inv F
 -0.125000 -0.250000  0.250000    0.00390625  37 t-inv F
  0.125000  0.250000 -0.250000    0.00390625  37 t-inv F
 -0.125000  0.250000 -0.250000    0.00390625  37 t-inv F
  0.125000 -0.250000  0.250000    0.00390625  37 t-inv F
  0.125000 -0.250000 -0.250000    0.00390625  37 t-inv F
 -0.125000  0.250000  0.250000    0.00390625  37 t-inv F
 -0.250000 -0.250000 -0.250000    0.00390625  38 t-inv F
 -0.250000 -0.250000  0.250000    0.00390625  38 t-inv F
  0.250000  0.250000 -0.250000    0.00390625  38 t-inv F
 -0.250000  0.250000 -0.250000    0.00390625  38 t-inv F
  0.250000 -0.250000  0.250000    0.00390625  38 t-inv F
  0.250000 -0.250000 -0.250000    0.00390625  38 t-inv F
 -0.250000  0.250000  0.250000    0.00390625  38 t-inv F
 -0.375000 -0.250000 -0.250000    0.00390625  39 t-inv F
 -0.375000 -0.250000  0.250000    0.00390625  39 t-inv F
  0.375000  0.250000 -0.250000    0.00390625  39 t-inv F
 -0.375000  0.250000 -0.250000    0.00390625  39 t-inv F
  0.375000 -0.250000  0.250000    0.00390625  39 t-inv F
  0.375000 -0.250000 -0.250000    0.00390625  39 t-inv F
 -0.375000  0.250000  0.250000    0.00390625  39 t-inv F
 -0.500000 -0.250000 -0.250000    0.00390625  40 t-inv F
 -0.500000 -0.250000  0.250000    0.00390625  40 t-inv F
  0.500000  0.250000 -0.250000    0.00390625  40 t-inv F
 -0.000000 -0.375000 -0.250000    0.00390625  41 t-inv F
 -0.000000 -0.375000  0.250000    0.00390625  41 t-inv F
  0.000000  0.375000 -0.250000    0.00390625  41 t-inv F
 -0.125000 -0.375000 -0.250000    0.00390625  42 t-inv F
 -0.125000 -0.375000  0.250000    0.00390625  42 t-inv F
  0.125000  0.375000 -0.250000    0.00390625  42 t-inv F
 -0.125000  0.375000 -0.250000    0.00390625  42 t-inv F
  0.125000 -0.375000  0.250000    0.00390625  42 t-inv F
  0.125000 -0.375000 -0.250000    0.00390625  42 t-inv F
 -0.125000  0.375000  0.250000    0.00390625  42 t-inv F
 -0.250000 -0.375000 -0.250000    0.00390625  43 t-inv F
 -0.250000 -0.375000  0.250000    0.00390625  43 t-inv F
  0.250000  0.375000 -0.250000    0.00390625  43 t-inv F
 -0.250000  0.375000 -0.250000    0.00390625  43 t-inv F
  0.250000 -0.375000  0.250000    0.00390625  43 t-inv F
  0.250000 -0.375000 -0.250000    0.00390625  43 t-inv F
 -0.250000  0.375000  0.250000    0.00390625  43 t-inv F
 -0.375000 -0.375000 -0.250000    0.00390625  44 t-inv F
 -0.375000 -0.375000  0.250000    0.00390625  44 t-inv F
  0.375000  0.375000 -0.250000    0.00390625  44 t-inv F
 -0.375000  0.375000 -0.250000    0.00390625  44 t-inv F
  0.375000 -0.375000  0.250000    0.00390625  44 t-inv F
  0.375000 -0.375000 -0.250000    0.00390625  44 t-inv F
 -0.375000  0.375000  0.250000    0.00390625  44 t-inv F
 -0.500000 -0.375000 -0.250000    0.00390625  45 t-inv F
 -0.500000 -0.375000  0.250000    0.00390625  45 t-inv F
  0.500000  0.375000 -0.250000    0.00390625  45 t-inv F
 -0.000000 -0.500000 -0.250000    0.00390625  46 t-inv F
 -0.125000 -0.500000 -0.250000    0.00390625  47 t-inv F
 -0.125000 -0.500000  0.250000    0.00390625  47 t-inv F
  0.125000  0.500000 -0.250000    0.00390625  47 t-inv F
 -0.250000 -0.500000 -0.250000    0.00390625  48 t-inv F
 -0.250000 -0.500000  0.250000    0.00390625  48 t-inv F
  0.250000  0.500000 -0.250000    0.00390625  48 t-inv F
 -0.375000 -0.500000 -0.250000    0.00390625  49 t-inv F
 -0.375000 -0.500000  0.250000    0.00390625  49 t-inv F
  0.375000  0.500000 -0.250000    0.00390625  49 t-inv F
 -0.500000 -0.500000 -0.250000    0.00390625  50 t-inv F
 -0.125000 -0.000000 -0.500000    0.00390625  52 t-inv F
 -0.250000 -0.000000 -0.500000    0.00390625  53 t-inv F
 -0.375000 -0.000000 -0.500000    0.00390625  54 t-inv F
 -0.000000 -0.125000 -0.500000    0.00390625  56 t-inv F
 -0.125000 -0.125000 -0.500000    0.00390625  57 t-inv F
 -0.125000  0.125000 -0.500000    0.00390625  57 t-inv F
  0.125000 -0.125000  0.500000    0.00390625  57 t-inv F
 -0.250000 -0.125000 -0.500000    0.00390625  58 t-inv F
 -0.250000  0.125000 -0.500000    0.00390625  58 t-inv F
  0.250000 -0.125000  0.500000    0.00390625  58 t-inv F
 -0.375000 -0.125000 -0.500000    0.00390625  59 t-inv F
 -0.375000  0.125000 -0.500000    0.00390625  59 t-inv F
  0.375000 -0.125000  0.500000    0.00390625  59 t-inv F
 -0.500000 -0.125000 -0.500000    0.00390625  60 t-inv F
 -0.000000 -0.250000 -0.500000    0.00390625  61 t-inv F
 -0.125000 -0.250000 -0.500000    0.00390625  62 t-inv F
 -0.125000  0.250000 -0.500000    0.00390625  62 t-inv F
  0.125000 -0.250000  0.500000    0.00390625  62 t-inv F
 -0.250000 -0.250000 -0.500000    0.00390625  63 t-inv F
 -0.250000  0.250000 -0.500000    0.00390625  63 t-inv F
  0.250000 -0.250000  0.500000    0.00390625  63 t-inv F
 -0.375000 -0.250000 -0.500000    0.00390625  64 t-inv F
 -0.375000  0.250000 -0.500000    0.00390625  64 t-inv F
  0.375000 -0.250000  0.500000    0.00390625  64 t-inv F
 -0.500000 -0.250000 -0.500000    0.00390625  65 t-inv F
 -0.000000 -0.375000 -0.500000    0.00390625  66 t-inv F
 -0.125000 -0.375000 -0.500000    0.00390625  67 t-inv F
 -0.125000  0.375000 -0.500000    0.00390625  67 t-inv F
  0.125000 -0.375000  0.500000    0.00390625  67 t-inv F
 -0.250000 -0.375000 -0.500000    0.00390625  68 t-inv F
 -0.250000  0.375000 -0.500000    0.00390625  68 t-inv F
  0.250000 -0.375000  0.500000    0.00390625  68 t-inv F
 -0.375000 -0.375000 -0.500000    0.00390625  69 t-inv F
 -0.375000  0.375000 -0.500000    0.00390625  69 t-inv F
  0.375000 -0.375000  0.500000    0.00390625  69 t-inv F
 -0.500000 -0.375000 -0.500000    0.00390625  70 t-inv F
 -0.125000 -0.500000 -0.500000    0.00390625  72 t-inv F
 -0.250000 -0.500000 -0.500000    0.00390625  73 t-inv F
 -0.375000 -0.500000 -0.500000    0.00390625  74 t-inv F


--------------------------------------------------------------------------------------------------------




 Dimension of arrays:
   k-points           NKPTS =     75   k-points in BZ     NKDIM =     75   number of bands    NBANDS=     48
   number of dos      NEDOS =    301   number of ions     NIONS =      8
   non local maximal  LDIM  =      6   non local SUM 2l+1 LMDIM =     18
   total plane-waves  NPLWV = 124416
   max r-space proj   IRMAX =      1   max aug-charges    IRDMAX=  25577
   dimension x,y,z NGX =    36 NGY =   36 NGZ =   96
   dimension x,y,z NGXF=    72 NGYF=   72 NGZF=  192
   support grid    NGXF=    72 NGYF=   72 NGZF=  192
   ions per type =               4   4
   NGX,Y,Z   is equivalent  to a cutoff of  14.36, 13.18, 13.80 a.u.
   NGXF,Y,Z  is equivalent  to a cutoff of  28.72, 26.37, 27.59 a.u.

 SYSTEM =  SnSe                                    
 POSCAR =  Sn4 Se4                                 

 Startparameter for this run:
   NWRITE =      2    write-flag & timer
   PREC   = accura    normal or accurate (medium, high low for compatibility)
   ISTART =      0    job   : 0-new  1-cont  2-samecut
   ICHARG =      2    charge: 1-file 2-atom 10-const
   ISPIN  =      1    spin polarized calculation?
   LNONCOLLINEAR =      F non collinear calculations
   LSORBIT =      F    spin-orbit coupling
   INIWAV =      1    electr: 0-lowe 1-rand  2-diag
   LASPH  =      F    aspherical Exc in radial PAW
   METAGGA=      F    non-selfconsistent MetaGGA calc.

 Electronic Relaxation 1
   ENCUT  =  600.0 eV  44.10 Ry    6.64 a.u.   8.33  9.07 23.11*2*pi/ulx,y,z
   ENINI  =  600.0     initial cutoff
   ENAUG  =  446.8 eV  augmentation charge cutoff
   NELM   =     60;   NELMIN=  2; NELMDL= -5     # of ELM steps 
   EDIFF  = 0.1E-06   stopping-criterion for ELM
   LREAL  =      F    real-space projection
   NLSPLINE    = F    spline interpolate recip. space projectors
   LCOMPAT=      F    compatible to vasp.4.4
   GGA_COMPAT  = T    GGA compatible to vasp.4.4-vasp.4.6
   LMAXPAW     = -100 max onsite density
   LMAXMIX     =    2 max onsite mixed and CHGCAR
   VOSKOWN=      0    Vosko Wilk Nusair interpolation
   ROPT   =    0.00000   0.00000
 Ionic relaxation
   EDIFFG = -.1E-02   stopping-criterion for IOM
   NSW    =      1    number of steps for IOM
   NBLOCK =      1;   KBLOCK =      1    inner block; outer block 
   IBRION =      8    ionic relax: 0-MD 1-quasi-New 2-CG
   NFREE  =      0    steps in history (QN), initial steepest desc. (CG)
   ISIF   =      2    stress and relaxation
   IWAVPR =     11    prediction:  0-non 1-charg 2-wave 3-comb
   ISYM   =      2    0-nonsym 1-usesym 2-fastsym
   LCORR  =      T    Harris-Foulkes like correction to forces

   POTIM  = 0.5000    time-step for ionic-motion
   TEIN   =    0.0    initial temperature
   TEBEG  =    0.0;   TEEND  =   0.0 temperature during run
   SMASS  =  -3.00    Nose mass-parameter (am)
   estimated Nose-frequenzy (Omega)   =  0.10E-29 period in steps =****** mass=  -0.397E-27a.u.
   SCALEE = 1.0000    scale energy and forces
   NPACO  =    256;   APACO  = 16.0  distance and # of slots for P.C.
   PSTRESS=    0.0 pullay stress

  Mass of Ions in am
   POMASS = 118.71 78.96
  Ionic Valenz
   ZVAL   =  14.00  6.00
  Atomic Wigner-Seitz radii
   RWIGS  =  -1.00 -1.00
  virtual crystal weights 
   VCA    =   1.00  1.00
   NELECT =      80.0000    total number of electrons
   NUPDOWN=      -1.0000    fix difference up-down

 DOS related values:
   EMIN   =  10.00;   EMAX   =-10.00  energy-range for DOS
   EFERMI =   0.00
   ISMEAR =    -5;   SIGMA  =   0.20  broadening in eV -4-tet -1-fermi 0-gaus

 Electronic relaxation 2 (details)
   IALGO  =     38    algorithm
   LDIAG  =      T    sub-space diagonalisation (order eigenvalues)
   LSUBROT=      F    optimize rotation matrix (better conditioning)
   TURBO    =      0    0=normal 1=particle mesh
   IRESTART =      0    0=no restart 2=restart with 2 vectors
   NREBOOT  =      0    no. of reboots
   NMIN     =      0    reboot dimension
   EREF     =   0.00    reference energy to select bands
   IMIX   =      4    mixing-type and parameters
     AMIX     =   0.40;   BMIX     =  1.00
     AMIX_MAG =   1.60;   BMIX_MAG =  1.00
     AMIN     =   0.10
     WC   =   100.;   INIMIX=   1;  MIXPRE=   1;  MAXMIX= -45

 Intra band minimization:
   WEIMIN = 0.0010     energy-eigenvalue tresh-hold
   EBREAK =  0.52E-09  absolut break condition
   DEPER  =   0.30     relativ break condition  

   TIME   =   0.40     timestep for ELM

  volume/ion in A,a.u.               =      27.36       184.66
  Fermi-wavevector in a.u.,A,eV,Ry     =   1.170435  2.211801 18.638851  1.369917
  Thomas-Fermi vector in A             =   2.306893

 Write flags
   LWAVE        =      T    write WAVECAR
   LDOWNSAMPLE  =      F    k-point downsampling of WAVECAR
   LCHARG       =      T    write CHGCAR
   LVTOT        =      F    write LOCPOT, total local potential
   LVHAR        =      F    write LOCPOT, Hartree potential only
   LELF         =      F    write electronic localiz. function (ELF)
   LORBIT       =      0    0 simple, 1 ext, 2 COOP (PROOUT), +10 PAW based schemes


 Dipole corrections
   LMONO  =      F    monopole corrections only (constant potential shift)
   LDIPOL =      F    correct potential (dipole corrections)
   IDIPOL =      0    1-x, 2-y, 3-z, 4-all directions 
   EPSILON=  1.0000000 bulk dielectric constant

 Exchange correlation treatment:
   GGA     =    --    GGA type
   LEXCH   =     8    internal setting for exchange type
   VOSKOWN=      0    Vosko Wilk Nusair interpolation
   LHFCALC =     F    Hartree Fock is set to
   LHFONE  =     F    Hartree Fock one center treatment
   AEXX    =    0.0000 exact exchange contribution

 Linear response parameters
   LEPSILON=     T    determine dielectric tensor
   LRPA    =     F    only Hartree local field effects (RPA)
   LNABLA  =     F    use nabla operator in PAW spheres
   LVEL    =     F    velocity operator in full k-point grid
   LINTERFAST=   F  fast interpolation
   KINTER  =     0    interpolate to denser k-point grid
   CSHIFT  =0.1000    complex shift for real part using Kramers Kronig
   OMEGAMAX=  -1.0    maximum frequency
   DEG_THRESHOLD= 0.2000000E-02 threshold for treating states as degnerate
   RTIME   =   -0.100 relaxation time in fs
  (WPLASMAI=    0.000 imaginary part of plasma frequency in eV, 0.658/RTIME)
   DFIELD  = 0.0000000 0.0000000 0.0000000 field for delta impulse in time

 Orbital magnetization related:
   ORBITALMAG=     F  switch on orbital magnetization
   LCHIMAG   =     F  perturbation theory with respect to B field
   DQ        =  0.001000  dq finite difference perturbation B field
   LLRAUG    =     F  two centre corrections for induced B field



--------------------------------------------------------------------------------------------------------


 linear response using symmetry
 charge density and potential will be updated during run
 non-spin polarized calculation
 Variant of blocked Davidson
 Davidson routine will perform the subspace rotation
 perform sub-space diagonalisation
    after iterative eigenvector-optimisation
 modified Broyden-mixing scheme, WC =      100.0
 initial mixing is a Kerker type mixing with AMIX =  0.4000 and BMIX =      1.0000
 Hartree-type preconditioning will be used
 using additional bands            8
 reciprocal scheme for non local part
 use partial core corrections
 calculate Harris-corrections to forces   (improved forces if not selfconsistent)
 use gradient corrections 
 use of overlap-Matrix (Vanderbilt PP)
 Fermi weights with tetrahedron method with Bloechl corrections


--------------------------------------------------------------------------------------------------------


  energy-cutoff  :      600.00
  volume of cell :      218.91
      direct lattice vectors                 reciprocal lattice vectors
     4.168422250  0.000000000  0.000000000     0.239898921 -0.000000000  0.000000000
     0.000000000  4.539670860  0.000000000     0.000000000  0.220280287  0.000000000
     0.000000000  0.000000000 11.568500130    -0.000000000 -0.000000000  0.086441629

  length of vectors
     4.168422250  4.539670860 11.568500130     0.239898921  0.220280287  0.086441629



 k-points in units of 2pi/SCALE and weight: Kpoints with grid resolution = 0.030 / A
   0.00000000  0.00000000  0.00000000       0.004
   0.02998737  0.00000000  0.00000000       0.008
   0.05997473  0.00000000  0.00000000       0.008
   0.08996210  0.00000000  0.00000000       0.008
   0.11994946  0.00000000  0.00000000       0.004
   0.00000000  0.02753504  0.00000000       0.008
   0.02998737  0.02753504  0.00000000       0.016
   0.05997473  0.02753504  0.00000000       0.016
   0.08996210  0.02753504  0.00000000       0.016
   0.11994946  0.02753504  0.00000000       0.008
   0.00000000  0.05507007  0.00000000       0.008
   0.02998737  0.05507007  0.00000000       0.016
   0.05997473  0.05507007  0.00000000       0.016
   0.08996210  0.05507007  0.00000000       0.016
   0.11994946  0.05507007  0.00000000       0.008
   0.00000000  0.08260511  0.00000000       0.008
   0.02998737  0.08260511  0.00000000       0.016
   0.05997473  0.08260511  0.00000000       0.016
   0.08996210  0.08260511  0.00000000       0.016
   0.11994946  0.08260511  0.00000000       0.008
   0.00000000  0.11014014  0.00000000       0.004
   0.02998737  0.11014014  0.00000000       0.008
   0.05997473  0.11014014  0.00000000       0.008
   0.08996210  0.11014014  0.00000000       0.008
   0.11994946  0.11014014  0.00000000       0.004
   0.00000000  0.00000000  0.02161041       0.008
   0.02998737  0.00000000  0.02161041       0.016
   0.05997473  0.00000000  0.02161041       0.016
   0.08996210  0.00000000  0.02161041       0.016
   0.11994946  0.00000000  0.02161041       0.008
   0.00000000  0.02753504  0.02161041       0.016
   0.02998737  0.02753504  0.02161041       0.031
   0.05997473  0.02753504  0.02161041       0.031
   0.08996210  0.02753504  0.02161041       0.031
   0.11994946  0.02753504  0.02161041       0.016
   0.00000000  0.05507007  0.02161041       0.016
   0.02998737  0.05507007  0.02161041       0.031
   0.05997473  0.05507007  0.02161041       0.031
   0.08996210  0.05507007  0.02161041       0.031
   0.11994946  0.05507007  0.02161041       0.016
   0.00000000  0.08260511  0.02161041       0.016
   0.02998737  0.08260511  0.02161041       0.031
   0.05997473  0.08260511  0.02161041       0.031
   0.08996210  0.08260511  0.02161041       0.031
   0.11994946  0.08260511  0.02161041       0.016
   0.00000000  0.11014014  0.02161041       0.008
   0.02998737  0.11014014  0.02161041       0.016
   0.05997473  0.11014014  0.02161041       0.016
   0.08996210  0.11014014  0.02161041       0.016
   0.11994946  0.11014014  0.02161041       0.008
   0.00000000  0.00000000  0.04322081       0.004
   0.02998737  0.00000000  0.04322081       0.008
   0.05997473  0.00000000  0.04322081       0.008
   0.08996210  0.00000000  0.04322081       0.008
   0.11994946  0.00000000  0.04322081       0.004
   0.00000000  0.02753504  0.04322081       0.008
   0.02998737  0.02753504  0.04322081       0.016
   0.05997473  0.02753504  0.04322081       0.016
   0.08996210  0.02753504  0.04322081       0.016
   0.11994946  0.02753504  0.04322081       0.008
   0.00000000  0.05507007  0.04322081       0.008
   0.02998737  0.05507007  0.04322081       0.016
   0.05997473  0.05507007  0.04322081       0.016
   0.08996210  0.05507007  0.04322081       0.016
   0.11994946  0.05507007  0.04322081       0.008
   0.00000000  0.08260511  0.04322081       0.008
   0.02998737  0.08260511  0.04322081       0.016
   0.05997473  0.08260511  0.04322081       0.016
   0.08996210  0.08260511  0.04322081       0.016
   0.11994946  0.08260511  0.04322081       0.008
   0.00000000  0.11014014  0.04322081       0.004
   0.02998737  0.11014014  0.04322081       0.008
   0.05997473  0.11014014  0.04322081       0.008
   0.08996210  0.11014014  0.04322081       0.008
   0.11994946  0.11014014  0.04322081       0.004

 k-points in reciprocal lattice and weights: Kpoints with grid resolution = 0.030 / A
   0.00000000  0.00000000  0.00000000       0.004
   0.12500000  0.00000000  0.00000000       0.008
   0.25000000  0.00000000  0.00000000       0.008
   0.37500000  0.00000000  0.00000000       0.008
   0.50000000  0.00000000  0.00000000       0.004
   0.00000000  0.12500000  0.00000000       0.008
   0.12500000  0.12500000  0.00000000       0.016
   0.25000000  0.12500000  0.00000000       0.016
   0.37500000  0.12500000  0.00000000       0.016
   0.50000000  0.12500000  0.00000000       0.008
   0.00000000  0.25000000  0.00000000       0.008
   0.12500000  0.25000000  0.00000000       0.016
   0.25000000  0.25000000  0.00000000       0.016
   0.37500000  0.25000000  0.00000000       0.016
   0.50000000  0.25000000  0.00000000       0.008
   0.00000000  0.37500000  0.00000000       0.008
   0.12500000  0.37500000  0.00000000       0.016
   0.25000000  0.37500000  0.00000000       0.016
   0.37500000  0.37500000  0.00000000       0.016
   0.50000000  0.37500000  0.00000000       0.008
   0.00000000  0.50000000  0.00000000       0.004
   0.12500000  0.50000000  0.00000000       0.008
   0.25000000  0.50000000  0.00000000       0.008
   0.37500000  0.50000000  0.00000000       0.008
   0.50000000  0.50000000  0.00000000       0.004
   0.00000000  0.00000000  0.25000000       0.008
   0.12500000  0.00000000  0.25000000       0.016
   0.25000000  0.00000000  0.25000000       0.016
   0.37500000  0.00000000  0.25000000       0.016
   0.50000000  0.00000000  0.25000000       0.008
   0.00000000  0.12500000  0.25000000       0.016
   0.12500000  0.12500000  0.25000000       0.031
   0.25000000  0.12500000  0.25000000       0.031
   0.37500000  0.12500000  0.25000000       0.031
   0.50000000  0.12500000  0.25000000       0.016
   0.00000000  0.25000000  0.25000000       0.016
   0.12500000  0.25000000  0.25000000       0.031
   0.25000000  0.25000000  0.25000000       0.031
   0.37500000  0.25000000  0.25000000       0.031
   0.50000000  0.25000000  0.25000000       0.016
   0.00000000  0.37500000  0.25000000       0.016
   0.12500000  0.37500000  0.25000000       0.031
   0.25000000  0.37500000  0.25000000       0.031
   0.37500000  0.37500000  0.25000000       0.031
   0.50000000  0.37500000  0.25000000       0.016
   0.00000000  0.50000000  0.25000000       0.008
   0.12500000  0.50000000  0.25000000       0.016
   0.25000000  0.50000000  0.25000000       0.016
   0.37500000  0.50000000  0.25000000       0.016
   0.50000000  0.50000000  0.25000000       0.008
   0.00000000  0.00000000  0.50000000       0.004
   0.12500000  0.00000000  0.50000000       0.008
   0.25000000  0.00000000  0.50000000       0.008
   0.37500000  0.00000000  0.50000000       0.008
   0.50000000  0.00000000  0.50000000       0.004
   0.00000000  0.12500000  0.50000000       0.008
   0.12500000  0.12500000  0.50000000       0.016
   0.25000000  0.12500000  0.50000000       0.016
   0.37500000  0.12500000  0.50000000       0.016
   0.50000000  0.12500000  0.50000000       0.008
   0.00000000  0.25000000  0.50000000       0.008
   0.12500000  0.25000000  0.50000000       0.016
   0.25000000  0.25000000  0.50000000       0.016
   0.37500000  0.25000000  0.50000000       0.016
   0.50000000  0.25000000  0.50000000       0.008
   0.00000000  0.37500000  0.50000000       0.008
   0.12500000  0.37500000  0.50000000       0.016
   0.25000000  0.37500000  0.50000000       0.016
   0.37500000  0.37500000  0.50000000       0.016
   0.50000000  0.37500000  0.50000000       0.008
   0.00000000  0.50000000  0.50000000       0.004
   0.12500000  0.50000000  0.50000000       0.008
   0.25000000  0.50000000  0.50000000       0.008
   0.37500000  0.50000000  0.50000000       0.008
   0.50000000  0.50000000  0.50000000       0.004

 position of ions in fractional coordinates (direct lattice) 
   0.25000000  0.11238621  0.11664596
   0.75000000  0.88761379  0.88335404
   0.75000000  0.61238621  0.38335404
   0.25000000  0.38761379  0.61664596
   0.75000000  0.51916418  0.14510650
   0.25000000  0.48083582  0.85489350
   0.25000000  0.01916418  0.35489350
   0.75000000  0.98083582  0.64510650

 position of ions in cartesian coordinates  (Angst):
   1.04210556  0.51019640  1.34941880
   3.12631669  4.02947446 10.21908133
   3.12631669  2.78003183  4.43483126
   1.04210556  1.75963903  7.13366887
   3.12631669  2.35683450  1.67866456
   1.04210556  2.18283636  9.88983557
   1.04210556  0.08699907  4.10558550
   3.12631669  4.45267179  7.46291463



--------------------------------------------------------------------------------------------------------


 k-point  1 :   0.0000 0.0000 0.0000  plane waves:    7285
 k-point  2 :   0.1250 0.0000 0.0000  plane waves:    7295
 k-point  3 :   0.2500 0.0000 0.0000  plane waves:    7299
 k-point  4 :   0.3750 0.0000 0.0000  plane waves:    7274
 k-point  5 :   0.5000 0.0000 0.0000  plane waves:    7276
 k-point  6 :   0.0000 0.1250 0.0000  plane waves:    7310
 k-point  7 :   0.1250 0.1250 0.0000  plane waves:    7287
 k-point  8 :   0.2500 0.1250 0.0000  plane waves:    7299
 k-point  9 :   0.3750 0.1250 0.0000  plane waves:    7291
 k-point 10 :   0.5000 0.1250 0.0000  plane waves:    7294
 k-point 11 :   0.0000 0.2500 0.0000  plane waves:    7308
 k-point 12 :   0.1250 0.2500 0.0000  plane waves:    7315
 k-point 13 :   0.2500 0.2500 0.0000  plane waves:    7320
 k-point 14 :   0.3750 0.2500 0.0000  plane waves:    7294
 k-point 15 :   0.5000 0.2500 0.0000  plane waves:    7290
 k-point 16 :   0.0000 0.3750 0.0000  plane waves:    7342
 k-point 17 :   0.1250 0.3750 0.0000  plane waves:    7327
 k-point 18 :   0.2500 0.3750 0.0000  plane waves:    7292
 k-point 19 :   0.3750 0.3750 0.0000  plane waves:    7313
 k-point 20 :   0.5000 0.3750 0.0000  plane waves:    7312
 k-point 21 :   0.0000 0.5000 0.0000  plane waves:    7318
 k-point 22 :   0.1250 0.5000 0.0000  plane waves:    7322
 k-point 23 :   0.2500 0.5000 0.0000  plane waves:    7312
 k-point 24 :   0.3750 0.5000 0.0000  plane waves:    7302
 k-point 25 :   0.5000 0.5000 0.0000  plane waves:    7328
 k-point 26 :   0.0000 0.0000 0.2500  plane waves:    7312
 k-point 27 :   0.1250 0.0000 0.2500  plane waves:    7299
 k-point 28 :   0.2500 0.0000 0.2500  plane waves:    7290
 k-point 29 :   0.3750 0.0000 0.2500  plane waves:    7283
 k-point 30 :   0.5000 0.0000 0.2500  plane waves:    7284
 k-point 31 :   0.0000 0.1250 0.2500  plane waves:    7318
 k-point 32 :   0.1250 0.1250 0.2500  plane waves:    7299
 k-point 33 :   0.2500 0.1250 0.2500  plane waves:    7304
 k-point 34 :   0.3750 0.1250 0.2500  plane waves:    7286
 k-point 35 :   0.5000 0.1250 0.2500  plane waves:    7292
 k-point 36 :   0.0000 0.2500 0.2500  plane waves:    7324
 k-point 37 :   0.1250 0.2500 0.2500  plane waves:    7323
 k-point 38 :   0.2500 0.2500 0.2500  plane waves:    7307
 k-point 39 :   0.3750 0.2500 0.2500  plane waves:    7300
 k-point 40 :   0.5000 0.2500 0.2500  plane waves:    7296
 k-point 41 :   0.0000 0.3750 0.2500  plane waves:    7319
 k-point 42 :   0.1250 0.3750 0.2500  plane waves:    7324
 k-point 43 :   0.2500 0.3750 0.2500  plane waves:    7308
 k-point 44 :   0.3750 0.3750 0.2500  plane waves:    7307
 k-point 45 :   0.5000 0.3750 0.2500  plane waves:    7328
 k-point 46 :   0.0000 0.5000 0.2500  plane waves:    7300
 k-point 47 :   0.1250 0.5000 0.2500  plane waves:    7318
 k-point 48 :   0.2500 0.5000 0.2500  plane waves:    7318
 k-point 49 :   0.3750 0.5000 0.2500  plane waves:    7314
 k-point 50 :   0.5000 0.5000 0.2500  plane waves:    7340
 k-point 51 :   0.0000 0.0000 0.5000  plane waves:    7278
 k-point 52 :   0.1250 0.0000 0.5000  plane waves:    7302
 k-point 53 :   0.2500 0.0000 0.5000  plane waves:    7306
 k-point 54 :   0.3750 0.0000 0.5000  plane waves:    7302
 k-point 55 :   0.5000 0.0000 0.5000  plane waves:    7292
 k-point 56 :   0.0000 0.1250 0.5000  plane waves:    7324
 k-point 57 :   0.1250 0.1250 0.5000  plane waves:    7300
 k-point 58 :   0.2500 0.1250 0.5000  plane waves:    7290
 k-point 59 :   0.3750 0.1250 0.5000  plane waves:    7304
 k-point 60 :   0.5000 0.1250 0.5000  plane waves:    7284
 k-point 61 :   0.0000 0.2500 0.5000  plane waves:    7320
 k-point 62 :   0.1250 0.2500 0.5000  plane waves:    7320
 k-point 63 :   0.2500 0.2500 0.5000  plane waves:    7316
 k-point 64 :   0.3750 0.2500 0.5000  plane waves:    7306
 k-point 65 :   0.5000 0.2500 0.5000  plane waves:    7296
 k-point 66 :   0.0000 0.3750 0.5000  plane waves:    7294
 k-point 67 :   0.1250 0.3750 0.5000  plane waves:    7318
 k-point 68 :   0.2500 0.3750 0.5000  plane waves:    7314
 k-point 69 :   0.3750 0.3750 0.5000  plane waves:    7320
 k-point 70 :   0.5000 0.3750 0.5000  plane waves:    7312
 k-point 71 :   0.0000 0.5000 0.5000  plane waves:    7328
 k-point 72 :   0.1250 0.5000 0.5000  plane waves:    7296
 k-point 73 :   0.2500 0.5000 0.5000  plane waves:    7304
 k-point 74 :   0.3750 0.5000 0.5000  plane waves:    7328
 k-point 75 :   0.5000 0.5000 0.5000  plane waves:    7344

 maximum and minimum number of plane-waves per node :      7344     7274

 maximum number of plane-waves:      7344
 maximum index in each direction: 
   IXMAX=    8   IYMAX=    9   IZMAX=   23
   IXMIN=   -8   IYMIN=   -9   IZMIN=  -23


 serial   3D FFT for wavefunctions
 parallel 3D FFT for charge:
    minimum data exchange during FFTs selected (reduces bandwidth)


 total amount of memory used by VASP MPI-rank0   260250. kBytes
=======================================================================

   base      :      30000. kBytes
   nonl-proj :     159570. kBytes
   fftplans  :       4742. kBytes
   grid      :      12016. kBytes
   one-center:        124. kBytes
   wavefun   :      53798. kBytes

     INWAV:  cpu time    0.0000: real time    0.0001
 Broyden mixing: mesh for mixing (old mesh)
   NGX = 17   NGY = 19   NGZ = 47
  (NGX  = 72   NGY  = 72   NGZ  =192)
  gives a total of  15181 points

 initial charge density was supplied:
 charge density of overlapping atoms calculated
 number of electron      80.0000000 magnetization 
 keeping initial charge density in first step


--------------------------------------------------------------------------------------------------------


 Maximum index for augmentation-charges         3081 (set IRDMAX)


--------------------------------------------------------------------------------------------------------


 First call to EWALD:  gamma=   0.294
 Maximum number of real-space cells 4x 3x 2
 Maximum number of reciprocal cells 2x 2x 5

    FEWALD:  cpu time    0.0011: real time    0.0011


--------------------------------------- Iteration      1(   1)  ---------------------------------------


    POTLOK:  cpu time    0.1186: real time    0.1318
    SETDIJ:  cpu time    0.0077: real time    0.0076
     EDDAV:  cpu time   14.9665: real time   14.9772
 BZINTS: Fermi energy: 24.542364; 80.000000 electrons
         Band energy: 317.387193;  BLOECHL correction: -1.205801
       DOS:  cpu time    0.0821: real time    0.0822
    --------------------------------------------
      LOOP:  cpu time   15.1749: real time   15.1988

 eigenvalue-minimisations  :  7768
 total energy-change (2. order) : 0.9192929E+03  (-0.3981784E+04)
 number of electron      80.0000000 magnetization 
 augmentation part       80.0000000 magnetization 

 Free energy of the ion-electron system (eV)
  ---------------------------------------------------
  alpha Z        PSCENC =       201.88417816
  Ewald energy   TEWEN  =     -5919.77645388
  -Hartree energ DENC   =     -2411.66136747
  -exchange      EXHF   =         0.00000000
  -V(xc)+E(xc)   XCENC  =       224.34354228
  PAW double counting   =      7116.73000302    -7210.55896847
  entropy T*S    EENTRO =         0.00000000
  eigenvalues    EBANDS =       317.38719313
  atomic energy  EATOM  =      8600.94477988
  Solvation  Ediel_sol  =         0.00000000
  ---------------------------------------------------
  free energy    TOTEN  =       919.29290664 eV

  energy without entropy =      919.29290664  energy(sigma->0) =      919.29290664


--------------------------------------------------------------------------------------------------------




--------------------------------------- Iteration      1(   2)  ---------------------------------------


     EDDAV:  cpu time   14.1659: real time   14.1750
 BZINTS: Fermi energy:  9.974408; 80.000000 electrons
         Band energy:-475.648400;  BLOECHL correction: -0.205931
       DOS:  cpu time    0.0824: real time    0.0825
    --------------------------------------------
      LOOP:  cpu time   14.2483: real time   14.2575

 eigenvalue-minimisations  :  7200
 total energy-change (2. order) :-0.7930356E+03  (-0.7699228E+03)
 number of electron      80.0000000 magnetization 
 augmentation part       80.0000000 magnetization 

 Free energy of the ion-electron system (eV)
  ---------------------------------------------------
  alpha Z        PSCENC =       201.88417816
  Ewald energy   TEWEN  =     -5919.77645388
  -Hartree energ DENC   =     -2411.66136747
  -exchange      EXHF   =         0.00000000
  -V(xc)+E(xc)   XCENC  =       224.34354228
  PAW double counting   =      7116.73000302    -7210.55896847
  entropy T*S    EENTRO =         0.00000000
  eigenvalues    EBANDS =      -475.64839969
  atomic energy  EATOM  =      8600.94477988
  Solvation  Ediel_sol  =         0.00000000
  ---------------------------------------------------
  free energy    TOTEN  =       126.25731383 eV

  energy without entropy =      126.25731383  energy(sigma->0) =      126.25731383


--------------------------------------------------------------------------------------------------------




--------------------------------------- Iteration      1(   3)  ---------------------------------------


     EDDAV:  cpu time   16.0702: real time   16.0798
 BZINTS: Fermi energy:  5.776720; 80.000000 electrons
         Band energy:-624.966711;  BLOECHL correction:  0.000000
       DOS:  cpu time    0.0216: real time    0.0219
    --------------------------------------------
      LOOP:  cpu time   16.0918: real time   16.1017

 eigenvalue-minimisations  :  8632
 total energy-change (2. order) :-0.1493183E+03  (-0.1429137E+03)
 number of electron      80.0000000 magnetization 
 augmentation part       80.0000000 magnetization 

 Free energy of the ion-electron system (eV)
  ---------------------------------------------------
  alpha Z        PSCENC =       201.88417816
  Ewald energy   TEWEN  =     -5919.77645388
  -Hartree energ DENC   =     -2411.66136747
  -exchange      EXHF   =         0.00000000
  -V(xc)+E(xc)   XCENC  =       224.34354228
  PAW double counting   =      7116.73000302    -7210.55896847
  entropy T*S    EENTRO =         0.00000000
  eigenvalues    EBANDS =      -624.96671102
  atomic energy  EATOM  =      8600.94477988
  Solvation  Ediel_sol  =         0.00000000
  ---------------------------------------------------
  free energy    TOTEN  =       -23.06099751 eV

  energy without entropy =      -23.06099751  energy(sigma->0) =      -23.06099751


--------------------------------------------------------------------------------------------------------




--------------------------------------- Iteration      1(   4)  ---------------------------------------


     EDDAV:  cpu time   15.9495: real time   15.9799
 BZINTS: Fermi energy:  4.861391; 80.000000 electrons
         Band energy:-635.196706;  BLOECHL correction:  0.000000
       DOS:  cpu time    0.0168: real time    0.0169
    --------------------------------------------
      LOOP:  cpu time   15.9663: real time   15.9968

 eigenvalue-minimisations  :  8552
 total energy-change (2. order) :-0.1023000E+02  (-0.1007459E+02)
 number of electron      80.0000000 magnetization 
 augmentation part       80.0000000 magnetization 

 Free energy of the ion-electron system (eV)
  ---------------------------------------------------
  alpha Z        PSCENC =       201.88417816
  Ewald energy   TEWEN  =     -5919.77645388
  -Hartree energ DENC   =     -2411.66136747
  -exchange      EXHF   =         0.00000000
  -V(xc)+E(xc)   XCENC  =       224.34354228
  PAW double counting   =      7116.73000302    -7210.55896847
  entropy T*S    EENTRO =         0.00000000
  eigenvalues    EBANDS =      -635.19670640
  atomic energy  EATOM  =      8600.94477988
  Solvation  Ediel_sol  =         0.00000000
  ---------------------------------------------------
  free energy    TOTEN  =       -33.29099288 eV

  energy without entropy =      -33.29099288  energy(sigma->0) =      -33.29099288


--------------------------------------------------------------------------------------------------------




--------------------------------------- Iteration      1(   5)  ---------------------------------------


     EDDAV:  cpu time   16.6471: real time   16.6601
 BZINTS: Fermi energy:  4.812681; 80.000000 electrons
         Band energy:-635.529359;  BLOECHL correction:  0.000000
       DOS:  cpu time    0.0168: real time    0.0169
    CHARGE:  cpu time    0.9698: real time    0.9702
    MIXING:  cpu time    0.0033: real time    0.0033
    --------------------------------------------
      LOOP:  cpu time   17.6371: real time   17.6506

 eigenvalue-minimisations  :  8408
 total energy-change (2. order) :-0.3326531E+00  (-0.3321971E+00)
 number of electron      79.9999999 magnetization 
 augmentation part       24.5808303 magnetization 

 Broyden mixing:
  rms(total) = 0.63196E+00    rms(broyden)= 0.63196E+00
  rms(prec ) = 0.75702E+00
  weight for this iteration     100.00

 Free energy of the ion-electron system (eV)
  ---------------------------------------------------
  alpha Z        PSCENC =       201.88417816
  Ewald energy   TEWEN  =     -5919.77645388
  -Hartree energ DENC   =     -2411.66136747
  -exchange      EXHF   =         0.00000000
  -V(xc)+E(xc)   XCENC  =       224.34354228
  PAW double counting   =      7116.73000302    -7210.55896847
  entropy T*S    EENTRO =         0.00000000
  eigenvalues    EBANDS =      -635.52935946
  atomic energy  EATOM  =      8600.94477988
  Solvation  Ediel_sol  =         0.00000000
  ---------------------------------------------------
  free energy    TOTEN  =       -33.62364594 eV

  energy without entropy =      -33.62364594  energy(sigma->0) =      -33.62364594


--------------------------------------------------------------------------------------------------------




--------------------------------------- Iteration      1(   6)  ---------------------------------------


    POTLOK:  cpu time    0.1202: real time    0.1203
    SETDIJ:  cpu time    0.0076: real time    0.0076
     EDDAV:  cpu time   20.0350: real time   20.5035
 BZINTS: Fermi energy:  5.036298; 80.000000 electrons
         Band energy:-647.262512;  BLOECHL correction:  0.000000
       DOS:  cpu time    0.0169: real time    0.0170
    CHARGE:  cpu time    0.9683: real time    0.9686
    MIXING:  cpu time    0.0033: real time    0.0033
    --------------------------------------------
      LOOP:  cpu time   21.1512: real time   21.6203

 eigenvalue-minimisations  : 10008
 total energy-change (2. order) : 0.7563797E+00  (-0.1534781E+00)
 number of electron      79.9999999 magnetization 
 augmentation part       24.7021176 magnetization 

 Broyden mixing:
  rms(total) = 0.39208E+00    rms(broyden)= 0.39208E+00
  rms(prec ) = 0.41604E+00
  weight for this iteration     100.00

 eigenvalues of (default mixing * dielectric matrix)
  average eigenvalue GAMMA=   1.9487
  1.9487

 Free energy of the ion-electron system (eV)
  ---------------------------------------------------
  alpha Z        PSCENC =       201.88417816
  Ewald energy   TEWEN  =     -5919.77645388
  -Hartree energ DENC   =     -2402.12688916
  -exchange      EXHF   =         0.00000000
  -V(xc)+E(xc)   XCENC  =       224.69087098
  PAW double counting   =      7552.72802698    -7643.94926743
  entropy T*S    EENTRO =         0.00000000
  eigenvalues    EBANDS =      -647.26251181
  atomic energy  EATOM  =      8600.94477988
  Solvation  Ediel_sol  =         0.00000000
  ---------------------------------------------------
  free energy    TOTEN  =       -32.86726628 eV

  energy without entropy =      -32.86726628  energy(sigma->0) =      -32.86726628


--------------------------------------------------------------------------------------------------------




--------------------------------------- Iteration      1(   7)  ---------------------------------------


    POTLOK:  cpu time    0.1240: real time    0.1241
    SETDIJ:  cpu time    0.0079: real time    0.0079
     EDDAV:  cpu time   18.4852: real time   18.4971
 BZINTS: Fermi energy:  5.184965; 80.000000 electrons
         Band energy:-651.418715;  BLOECHL correction:  0.000000
       DOS:  cpu time    0.0190: real time    0.0192
    CHARGE:  cpu time    0.9246: real time    1.4351
    MIXING:  cpu time    0.0033: real time    0.0033
    --------------------------------------------
      LOOP:  cpu time   19.5640: real time   20.0866

 eigenvalue-minimisations  :  9040
 total energy-change (2. order) : 0.3995541E-02  (-0.5820762E-01)
 number of electron      79.9999999 magnetization 
 augmentation part       24.7143066 magnetization 

 Broyden mixing:
  rms(total) = 0.15368E+00    rms(broyden)= 0.15368E+00
  rms(prec ) = 0.16315E+00
  weight for this iteration     100.00

 eigenvalues of (default mixing * dielectric matrix)
  average eigenvalue GAMMA=   1.7111
  1.3111  2.1111

 Free energy of the ion-electron system (eV)
  ---------------------------------------------------
  alpha Z        PSCENC =       201.88417816
  Ewald energy   TEWEN  =     -5919.77645388
  -Hartree energ DENC   =     -2397.54879948
  -exchange      EXHF   =         0.00000000
  -V(xc)+E(xc)   XCENC  =       224.90830820
  PAW double counting   =      8119.42667531    -8211.28324425
  entropy T*S    EENTRO =         0.00000000
  eigenvalues    EBANDS =      -651.41871468
  atomic energy  EATOM  =      8600.94477988
  Solvation  Ediel_sol  =         0.00000000
  ---------------------------------------------------
  free energy    TOTEN  =       -32.86327074 eV

  energy without entropy =      -32.86327074  energy(sigma->0) =      -32.86327074


--------------------------------------------------------------------------------------------------------




--------------------------------------- Iteration      1(   8)  ---------------------------------------


    POTLOK:  cpu time    0.1191: real time    0.1192
    SETDIJ:  cpu time    0.0084: real time    0.0084
     EDDAV:  cpu time   19.1073: real time   19.1195
 BZINTS: Fermi energy:  5.102988; 80.000000 electrons
         Band energy:-648.369221;  BLOECHL correction:  0.000000
       DOS:  cpu time    0.0166: real time    0.0167
    CHARGE:  cpu time    0.9666: real time    0.9672
    MIXING:  cpu time    0.0036: real time    0.0036
    --------------------------------------------
      LOOP:  cpu time   20.2216: real time   20.2347

 eigenvalue-minimisations  :  9392
 total energy-change (2. order) : 0.1719499E-02  (-0.5786708E-02)
 number of electron      79.9999999 magnetization 
 augmentation part       24.6813498 magnetization 

 Broyden mixing:
  rms(total) = 0.32773E-01    rms(broyden)= 0.32773E-01
  rms(prec ) = 0.37947E-01
  weight for this iteration     100.00

 eigenvalues of (default mixing * dielectric matrix)
  average eigenvalue GAMMA=   1.6705
  2.4328  1.2894  1.2894

 Free energy of the ion-electron system (eV)
  ---------------------------------------------------
  alpha Z        PSCENC =       201.88417816
  Ewald energy   TEWEN  =     -5919.77645388
  -Hartree energ DENC   =     -2398.70900319
  -exchange      EXHF   =         0.00000000
  -V(xc)+E(xc)   XCENC  =       225.02344588
  PAW double counting   =      8365.48335040    -8459.34262757
  entropy T*S    EENTRO =         0.00000000
  eigenvalues    EBANDS =      -648.36922092
  atomic energy  EATOM  =      8600.94477988
  Solvation  Ediel_sol  =         0.00000000
  ---------------------------------------------------
  free energy    TOTEN  =       -32.86155124 eV

  energy without entropy =      -32.86155124  energy(sigma->0) =      -32.86155124


--------------------------------------------------------------------------------------------------------




--------------------------------------- Iteration      1(   9)  ---------------------------------------


    POTLOK:  cpu time    0.1225: real time    0.1226
    SETDIJ:  cpu time    0.0081: real time    0.0081
     EDDAV:  cpu time   18.1346: real time   18.7506
 BZINTS: Fermi energy:  5.095223; 80.000000 electrons
         Band energy:-649.210409;  BLOECHL correction:  0.000000
       DOS:  cpu time    0.0166: real time    0.0168
    CHARGE:  cpu time    0.9808: real time    0.9814
    MIXING:  cpu time    0.0037: real time    0.0037
    --------------------------------------------
      LOOP:  cpu time   19.2662: real time   19.8830

 eigenvalue-minimisations  :  8768
 total energy-change (2. order) :-0.2153344E-03  (-0.7956991E-03)
 number of electron      79.9999999 magnetization 
 augmentation part       24.6882155 magnetization 

 Broyden mixing:
  rms(total) = 0.10843E-01    rms(broyden)= 0.10843E-01
  rms(prec ) = 0.11691E-01
  weight for this iteration     100.00

 eigenvalues of (default mixing * dielectric matrix)
  average eigenvalue GAMMA=   1.5565
  2.3524  1.1508  1.1508  1.5718

 Free energy of the ion-electron system (eV)
  ---------------------------------------------------
  alpha Z        PSCENC =       201.88417816
  Ewald energy   TEWEN  =     -5919.77645388
  -Hartree energ DENC   =     -2397.95221897
  -exchange      EXHF   =         0.00000000
  -V(xc)+E(xc)   XCENC  =       225.06813735
  PAW double counting   =      8394.72597163    -8488.54575138
  entropy T*S    EENTRO =         0.00000000
  eigenvalues    EBANDS =      -649.21040936
  atomic energy  EATOM  =      8600.94477988
  Solvation  Ediel_sol  =         0.00000000
  ---------------------------------------------------
  free energy    TOTEN  =       -32.86176657 eV

  energy without entropy =      -32.86176657  energy(sigma->0) =      -32.86176657


--------------------------------------------------------------------------------------------------------




--------------------------------------- Iteration      1(  10)  ---------------------------------------


    POTLOK:  cpu time    0.1213: real time    0.1213
    SETDIJ:  cpu time    0.0077: real time    0.0077
     EDDAV:  cpu time   18.1856: real time   18.2633
 BZINTS: Fermi energy:  5.094101; 80.000000 electrons
         Band energy:-649.114839;  BLOECHL correction:  0.000000
       DOS:  cpu time    0.0168: real time    0.0170
    CHARGE:  cpu time    0.9247: real time    1.5235
    MIXING:  cpu time    0.0040: real time    0.0040
    --------------------------------------------
      LOOP:  cpu time   19.2601: real time   19.9369

 eigenvalue-minimisations  :  8816
 total energy-change (2. order) :-0.1481081E-03  (-0.8702328E-04)
 number of electron      79.9999999 magnetization 
 augmentation part       24.6861976 magnetization 

 Broyden mixing:
  rms(total) = 0.60212E-02    rms(broyden)= 0.60212E-02
  rms(prec ) = 0.65771E-02
  weight for this iteration     100.00

 eigenvalues of (default mixing * dielectric matrix)
  average eigenvalue GAMMA=   1.7617
  2.8780  2.5758  1.2037  1.2037  0.9475

 Free energy of the ion-electron system (eV)
  ---------------------------------------------------
  alpha Z        PSCENC =       201.88417816
  Ewald energy   TEWEN  =     -5919.77645388
  -Hartree energ DENC   =     -2397.99869409
  -exchange      EXHF   =         0.00000000
  -V(xc)+E(xc)   XCENC  =       225.07060483
  PAW double counting   =      8383.79745929    -8477.66895021
  entropy T*S    EENTRO =         0.00000000
  eigenvalues    EBANDS =      -649.11483867
  atomic energy  EATOM  =      8600.94477988
  Solvation  Ediel_sol  =         0.00000000
  ---------------------------------------------------
  free energy    TOTEN  =       -32.86191468 eV

  energy without entropy =      -32.86191468  energy(sigma->0) =      -32.86191468


--------------------------------------------------------------------------------------------------------




--------------------------------------- Iteration      1(  11)  ---------------------------------------


    POTLOK:  cpu time    0.1199: real time    0.1199
    SETDIJ:  cpu time    0.0077: real time    0.0077
     EDDAV:  cpu time   18.8163: real time   18.8283
 BZINTS: Fermi energy:  5.095513; 80.000000 electrons
         Band energy:-648.898671;  BLOECHL correction:  0.000000
       DOS:  cpu time    0.0167: real time    0.0169
    CHARGE:  cpu time    0.9637: real time    0.9640
    MIXING:  cpu time    0.0039: real time    0.0039
    --------------------------------------------
      LOOP:  cpu time   19.9282: real time   19.9407

 eigenvalue-minimisations  :  9248
 total energy-change (2. order) :-0.6896895E-04  (-0.2623700E-04)
 number of electron      79.9999999 magnetization 
 augmentation part       24.6839894 magnetization 

 Broyden mixing:
  rms(total) = 0.18993E-02    rms(broyden)= 0.18993E-02
  rms(prec ) = 0.23990E-02
  weight for this iteration     100.00

 eigenvalues of (default mixing * dielectric matrix)
  average eigenvalue GAMMA=   1.6323
  2.6059  2.6059  1.3762  1.0729  1.0665  1.0665

 Free energy of the ion-electron system (eV)
  ---------------------------------------------------
  alpha Z        PSCENC =       201.88417816
  Ewald energy   TEWEN  =     -5919.77645388
  -Hartree energ DENC   =     -2398.14689517
  -exchange      EXHF   =         0.00000000
  -V(xc)+E(xc)   XCENC  =       225.07778513
  PAW double counting   =      8374.00022997    -8467.94693657
  entropy T*S    EENTRO =         0.00000000
  eigenvalues    EBANDS =      -648.89867118
  atomic energy  EATOM  =      8600.94477988
  Solvation  Ediel_sol  =         0.00000000
  ---------------------------------------------------
  free energy    TOTEN  =       -32.86198365 eV

  energy without entropy =      -32.86198365  energy(sigma->0) =      -32.86198365


--------------------------------------------------------------------------------------------------------




--------------------------------------- Iteration      1(  12)  ---------------------------------------


    POTLOK:  cpu time    0.1202: real time    0.1203
    SETDIJ:  cpu time    0.0078: real time    0.0078
     EDDAV:  cpu time   18.7220: real time   19.0746
 BZINTS: Fermi energy:  5.094991; 80.000000 electrons
         Band energy:-648.937599;  BLOECHL correction:  0.000000
       DOS:  cpu time    0.0166: real time    0.0168
    CHARGE:  cpu time    0.9752: real time    0.9756
[...]
      1.042106  0.510196  1.349419    -0.000000   -0.249499    0.071005  
      3.126317  4.029474 10.219081     0.000000    0.249499   -0.071005  
      3.126317  2.780032  4.434831     0.000000    0.249499    0.071005  
      1.042106  1.759639  7.133669    -0.000000   -0.249499   -0.071005  
      3.126317  2.356834  1.678665     0.000000    0.405290   -0.135825  
      1.042106  2.182836  9.889836    -0.000000   -0.405290    0.135825  
      1.042106  0.086999  4.105586    -0.000000   -0.405290   -0.135825  
      3.126317  4.452672  7.462915     0.000000    0.405290    0.135825  

   3 f  =    4.377682 THz    27.505789 2PiTHz  146.023760 cm-1    18.104645 meV
             X         Y         Z           dx          dy          dz
      1.042106  0.510196  1.349419     0.000000    0.258809    0.052931  
      3.126317  4.029474 10.219081     0.000000    0.258809    0.052931  
      3.126317  2.780032  4.434831    -0.000000   -0.258809    0.052931  
      1.042106  1.759639  7.133669    -0.000000   -0.258809    0.052931  
      3.126317  2.356834  1.678665    -0.000000   -0.419530   -0.064893  
      1.042106  2.182836  9.889836    -0.000000   -0.419530   -0.064893  
      1.042106  0.086999  4.105586     0.000000    0.419530   -0.064893  
      3.126317  4.452672  7.462915     0.000000    0.419530   -0.064893  

   4 f  =    4.270474 THz    26.832180 2PiTHz  142.447679 cm-1    17.661268 meV
             X         Y         Z           dx          dy          dz
      1.042106  0.510196  1.349419    -0.000000    0.018884   -0.281586  
      3.126317  4.029474 10.219081    -0.000000    0.018884   -0.281586  
      3.126317  2.780032  4.434831    -0.000000    0.018884    0.281586  
      1.042106  1.759639  7.133669     0.000000    0.018884    0.281586  
      3.126317  2.356834  1.678665     0.000000   -0.023009   -0.412096  
      1.042106  2.182836  9.889836     0.000000   -0.023009   -0.412096  
      1.042106  0.086999  4.105586     0.000000   -0.023009    0.412096  
      3.126317  4.452672  7.462915    -0.000000   -0.023009    0.412096  

   5 f  =    4.268996 THz    26.822891 2PiTHz  142.398364 cm-1    17.655153 meV
             X         Y         Z           dx          dy          dz
      1.042106  0.510196  1.349419    -0.000000   -0.079207   -0.281397  
      3.126317  4.029474 10.219081     0.000000    0.079207    0.281397  
      3.126317  2.780032  4.434831     0.000000   -0.079207    0.281397  
      1.042106  1.759639  7.133669    -0.000000    0.079207   -0.281397  
      3.126317  2.356834  1.678665     0.000000    0.039108   -0.403748  
      1.042106  2.182836  9.889836    -0.000000   -0.039108    0.403748  
      1.042106  0.086999  4.105586    -0.000000    0.039108    0.403748  
      3.126317  4.452672  7.462915     0.000000   -0.039108   -0.403748  

   6 f  =    4.190100 THz    26.327178 2PiTHz  139.766702 cm-1    17.328869 meV
             X         Y         Z           dx          dy          dz
      1.042106  0.510196  1.349419     0.000000    0.275850    0.092978  
      3.126317  4.029474 10.219081    -0.000000   -0.275850   -0.092978  
      3.126317  2.780032  4.434831     0.000000    0.275850   -0.092978  
      1.042106  1.759639  7.133669    -0.000000   -0.275850    0.092978  
      3.126317  2.356834  1.678665    -0.000000   -0.375688   -0.155308  
      1.042106  2.182836  9.889836     0.000000    0.375688    0.155308  
      1.042106  0.086999  4.105586    -0.000000   -0.375688    0.155308  
      3.126317  4.452672  7.462915     0.000000    0.375688   -0.155308  

   7 f  =    3.988772 THz    25.062192 2PiTHz  133.051100 cm-1    16.496240 meV
             X         Y         Z           dx          dy          dz
      1.042106  0.510196  1.349419     0.000000    0.302992    0.134953  
      3.126317  4.029474 10.219081    -0.000000    0.302992    0.134953  
      3.126317  2.780032  4.434831    -0.000000    0.302992   -0.134953  
      1.042106  1.759639  7.133669     0.000000    0.302992   -0.134953  
      3.126317  2.356834  1.678665    -0.000000   -0.369669   -0.057689  
      1.042106  2.182836  9.889836     0.000000   -0.369669   -0.057689  
      1.042106  0.086999  4.105586     0.000000   -0.369669    0.057689  
      3.126317  4.452672  7.462915    -0.000000   -0.369669    0.057689  

   8 f  =    3.975267 THz    24.977337 2PiTHz  132.600618 cm-1    16.440387 meV
             X         Y         Z           dx          dy          dz
      1.042106  0.510196  1.349419    -0.218754    0.000000    0.000000  
      3.126317  4.029474 10.219081     0.218754    0.000000    0.000000  
      3.126317  2.780032  4.434831     0.218754    0.000000   -0.000000  
      1.042106  1.759639  7.133669    -0.218754    0.000000   -0.000000  
      3.126317  2.356834  1.678665     0.449607   -0.000000   -0.000000  
      1.042106  2.182836  9.889836    -0.449607   -0.000000   -0.000000  
      1.042106  0.086999  4.105586    -0.449607   -0.000000    0.000000  
      3.126317  4.452672  7.462915     0.449607   -0.000000    0.000000  

   9 f  =    3.779249 THz    23.745722 2PiTHz  126.062173 cm-1    15.629723 meV
             X         Y         Z           dx          dy          dz
      1.042106  0.510196  1.349419    -0.218430    0.000000   -0.000000  
      3.126317  4.029474 10.219081    -0.218430    0.000000   -0.000000  
      3.126317  2.780032  4.434831     0.218430   -0.000000   -0.000000  
      1.042106  1.759639  7.133669     0.218430    0.000000   -0.000000  
      3.126317  2.356834  1.678665     0.449765   -0.000000    0.000000  
      1.042106  2.182836  9.889836     0.449765   -0.000000    0.000000  
      1.042106  0.086999  4.105586    -0.449765    0.000000    0.000000  
      3.126317  4.452672  7.462915    -0.449765    0.000000    0.000000  

  10 f  =    3.751376 THz    23.570590 2PiTHz  125.132427 cm-1    15.514449 meV
             X         Y         Z           dx          dy          dz
      1.042106  0.510196  1.349419     0.000000    0.017997   -0.311082  
      3.126317  4.029474 10.219081     0.000000    0.017997   -0.311082  
      3.126317  2.780032  4.434831    -0.000000   -0.017997   -0.311082  
      1.042106  1.759639  7.133669    -0.000000   -0.017997   -0.311082  
      3.126317  2.356834  1.678665    -0.000000   -0.087110    0.381203  
      1.042106  2.182836  9.889836    -0.000000   -0.087110    0.381203  
      1.042106  0.086999  4.105586     0.000000    0.087110    0.381203  
      3.126317  4.452672  7.462915     0.000000    0.087110    0.381203  

  11 f  =    3.475112 THz    21.834771 2PiTHz  115.917246 cm-1    14.371912 meV
             X         Y         Z           dx          dy          dz
      1.042106  0.510196  1.349419    -0.309661    0.000000    0.000000  
      3.126317  4.029474 10.219081     0.309661   -0.000000   -0.000000  
      3.126317  2.780032  4.434831    -0.309661   -0.000000    0.000000  
      1.042106  1.759639  7.133669     0.309661   -0.000000   -0.000000  
      3.126317  2.356834  1.678665     0.392569   -0.000000   -0.000000  
      1.042106  2.182836  9.889836    -0.392569    0.000000    0.000000  
      1.042106  0.086999  4.105586     0.392569   -0.000000    0.000000  
      3.126317  4.452672  7.462915    -0.392569    0.000000   -0.000000  

  12 f  =    3.211680 THz    20.179578 2PiTHz  107.130095 cm-1    13.282444 meV
             X         Y         Z           dx          dy          dz
      1.042106  0.510196  1.349419     0.314620   -0.000000   -0.000000  
      3.126317  4.029474 10.219081     0.314620   -0.000000   -0.000000  
      3.126317  2.780032  4.434831     0.314620   -0.000000    0.000000  
      1.042106  1.759639  7.133669     0.314620   -0.000000    0.000000  
      3.126317  2.356834  1.678665    -0.388605    0.000000   -0.000000  
      1.042106  2.182836  9.889836    -0.388605    0.000000    0.000000  
      1.042106  0.086999  4.105586    -0.388605    0.000000    0.000000  
      3.126317  4.452672  7.462915    -0.388605    0.000000   -0.000000  

  13 f  =    2.183879 THz    13.721715 2PiTHz   72.846351 cm-1     9.031800 meV
             X         Y         Z           dx          dy          dz
      1.042106  0.510196  1.349419    -0.000000   -0.092093    0.390507  
      3.126317  4.029474 10.219081    -0.000000   -0.092093    0.390507  
      3.126317  2.780032  4.434831     0.000000   -0.092093   -0.390507  
      1.042106  1.759639  7.133669     0.000000   -0.092093   -0.390507  
      3.126317  2.356834  1.678665     0.000000    0.110339   -0.277215  
      1.042106  2.182836  9.889836    -0.000000    0.110339   -0.277215  
      1.042106  0.086999  4.105586     0.000000    0.110339    0.277215  
      3.126317  4.452672  7.462915    -0.000000    0.110339    0.277215  

  14 f  =    2.102596 THz    13.211002 2PiTHz   70.135061 cm-1     8.695642 meV
             X         Y         Z           dx          dy          dz
      1.042106  0.510196  1.349419     0.000000   -0.425000    0.006609  
      3.126317  4.029474 10.219081     0.000000    0.425000   -0.006609  
      3.126317  2.780032  4.434831    -0.000000    0.425000    0.006609  
      1.042106  1.759639  7.133669    -0.000000   -0.425000   -0.006609  
      3.126317  2.356834  1.678665    -0.000000   -0.263304   -0.001533  
      1.042106  2.182836  9.889836     0.000000    0.263304    0.001533  
      1.042106  0.086999  4.105586    -0.000000    0.263304   -0.001533  
      3.126317  4.452672  7.462915    -0.000000   -0.263304    0.001533  

  15 f  =    1.927675 THz    12.111940 2PiTHz   64.300320 cm-1     7.972226 meV
             X         Y         Z           dx          dy          dz
      1.042106  0.510196  1.349419    -0.000000    0.018293   -0.390155  
      3.126317  4.029474 10.219081     0.000000   -0.018293    0.390155  
      3.126317  2.780032  4.434831     0.000000    0.018293    0.390155  
      1.042106  1.759639  7.133669    -0.000000   -0.018293   -0.390155  
      3.126317  2.356834  1.678665    -0.000000   -0.186584    0.250262  
      1.042106  2.182836  9.889836     0.000000    0.186584   -0.250262  
      1.042106  0.086999  4.105586    -0.000000   -0.186584   -0.250262  
      3.126317  4.452672  7.462915    -0.000000    0.186584    0.250262  

  16 f  =    1.685283 THz    10.588947 2PiTHz   56.214996 cm-1     6.969774 meV
             X         Y         Z           dx          dy          dz
      1.042106  0.510196  1.349419     0.000000    0.009113   -0.402270  
      3.126317  4.029474 10.219081    -0.000000   -0.009113    0.402270  
      3.126317  2.780032  4.434831    -0.000000   -0.009113   -0.402270  
      1.042106  1.759639  7.133669     0.000000    0.009113    0.402270  
      3.126317  2.356834  1.678665     0.000000   -0.023082   -0.295911  
      1.042106  2.182836  9.889836    -0.000000    0.023082    0.295911  
      1.042106  0.086999  4.105586    -0.000000    0.023082   -0.295911  
      3.126317  4.452672  7.462915     0.000000   -0.023082    0.295911  

  17 f  =    1.665218 THz    10.462875 2PiTHz   55.545703 cm-1     6.886792 meV
             X         Y         Z           dx          dy          dz
      1.042106  0.510196  1.349419    -0.000000    0.427427   -0.019018  
      3.126317  4.029474 10.219081     0.000000    0.427427   -0.019018  
      3.126317  2.780032  4.434831     0.000000   -0.427427   -0.019018  
      1.042106  1.759639  7.133669    -0.000000   -0.427427   -0.019018  
      3.126317  2.356834  1.678665    -0.000000    0.257695    0.023187  
      1.042106  2.182836  9.889836     0.000000    0.257695    0.023187  
      1.042106  0.086999  4.105586     0.000000   -0.257695    0.023187  
      3.126317  4.452672  7.462915    -0.000000   -0.257695    0.023187  

  18 f  =    1.609370 THz    10.111971 2PiTHz   53.682811 cm-1     6.655823 meV
             X         Y         Z           dx          dy          dz
      1.042106  0.510196  1.349419     0.449607    0.000000    0.000000  
      3.126317  4.029474 10.219081    -0.449607    0.000000   -0.000000  
      3.126317  2.780032  4.434831    -0.449607   -0.000000    0.000000  
      1.042106  1.759639  7.133669     0.449607   -0.000000   -0.000000  
      3.126317  2.356834  1.678665     0.218754    0.000000    0.000000  
      1.042106  2.182836  9.889836    -0.218754    0.000000   -0.000000  
      1.042106  0.086999  4.105586    -0.218754   -0.000000    0.000000  
      3.126317  4.452672  7.462915     0.218754   -0.000000   -0.000000  

  19 f  =    1.391959 THz     8.745938 2PiTHz   46.430762 cm-1     5.756683 meV
             X         Y         Z           dx          dy          dz
      1.042106  0.510196  1.349419     0.449765   -0.000000    0.000000  
      3.126317  4.029474 10.219081     0.449765   -0.000000   -0.000000  
      3.126317  2.780032  4.434831    -0.449765   -0.000000   -0.000000  
      1.042106  1.759639  7.133669    -0.449765    0.000000   -0.000000  
      3.126317  2.356834  1.678665     0.218430   -0.000000   -0.000000  
      1.042106  2.182836  9.889836     0.218430   -0.000000   -0.000000  
      1.042106  0.086999  4.105586    -0.218430   -0.000000    0.000000  
      3.126317  4.452672  7.462915    -0.218430    0.000000   -0.000000  

  20 f  =    0.999675 THz     6.281142 2PiTHz   33.345558 cm-1     4.134324 meV
             X         Y         Z           dx          dy          dz
      1.042106  0.510196  1.349419     0.000000    0.409021   -0.099750  
      3.126317  4.029474 10.219081    -0.000000   -0.409021    0.099750  
      3.126317  2.780032  4.434831     0.000000    0.409021    0.099750  
      1.042106  1.759639  7.133669    -0.000000   -0.409021   -0.099750  
      3.126317  2.356834  1.678665     0.000000    0.269287    0.015363  
      1.042106  2.182836  9.889836    -0.000000   -0.269287   -0.015363  
      1.042106  0.086999  4.105586     0.000000    0.269287   -0.015363  
      3.126317  4.452672  7.462915    -0.000000   -0.269287    0.015363  

  21 f  =    0.981698 THz     6.168188 2PiTHz   32.745908 cm-1     4.059977 meV
             X         Y         Z           dx          dy          dz
      1.042106  0.510196  1.349419     0.392569   -0.000000    0.000000  
      3.126317  4.029474 10.219081    -0.392569    0.000000   -0.000000  
      3.126317  2.780032  4.434831     0.392569   -0.000000   -0.000000  
      1.042106  1.759639  7.133669    -0.392569    0.000000    0.000000  
      3.126317  2.356834  1.678665     0.309661   -0.000000   -0.000000  
      1.042106  2.182836  9.889836    -0.309661    0.000000    0.000000  
      1.042106  0.086999  4.105586     0.309661   -0.000000    0.000000  
      3.126317  4.452672  7.462915    -0.309661    0.000000   -0.000000  

  22 f/i=    0.001114 THz     0.006997 2PiTHz    0.037147 cm-1     0.004606 meV
             X         Y         Z           dx          dy          dz
      1.042106  0.510196  1.349419     0.000000    0.000074    0.387382  
      3.126317  4.029474 10.219081     0.000000    0.000074    0.387382  
      3.126317  2.780032  4.434831     0.000000   -0.000074    0.387382  
      1.042106  1.759639  7.133669     0.000000   -0.000074    0.387382  
      3.126317  2.356834  1.678665     0.000000    0.000022    0.316126  
      1.042106  2.182836  9.889836     0.000000    0.000022    0.316126  
      1.042106  0.086999  4.105586     0.000000   -0.000022    0.316126  
      3.126317  4.452672  7.462915     0.000000   -0.000022    0.316126  

  23 f/i=    0.011517 THz     0.072361 2PiTHz    0.384152 cm-1     0.047629 meV
             X         Y         Z           dx          dy          dz
      1.042106  0.510196  1.349419     0.388605   -0.000000   -0.000000  
      3.126317  4.029474 10.219081     0.388605   -0.000000   -0.000000  
      3.126317  2.780032  4.434831     0.388605   -0.000000   -0.000000  
      1.042106  1.759639  7.133669     0.388605   -0.000000   -0.000000  
      3.126317  2.356834  1.678665     0.314620   -0.000000   -0.000000  
      1.042106  2.182836  9.889836     0.314620   -0.000000   -0.000000  
      1.042106  0.086999  4.105586     0.314620   -0.000000   -0.000000  
      3.126317  4.452672  7.462915     0.314620   -0.000000   -0.000000  

  24 f/i=    0.011729 THz     0.073694 2PiTHz    0.391232 cm-1     0.048507 meV
             X         Y         Z           dx          dy          dz
      1.042106  0.510196  1.349419    -0.000000   -0.386469   -0.001011  
      3.126317  4.029474 10.219081    -0.000000   -0.386469   -0.001011  
      3.126317  2.780032  4.434831    -0.000000   -0.386469    0.001011  
      1.042106  1.759639  7.133669    -0.000000   -0.386469    0.001011  
      3.126317  2.356834  1.678665    -0.000000   -0.317239    0.000694  
      1.042106  2.182836  9.889836    -0.000000   -0.317239    0.000694  
      1.042106  0.086999  4.105586    -0.000000   -0.317239   -0.000694  
      3.126317  4.452672  7.462915    -0.000000   -0.317239   -0.000694  



--------------------------------------------------------------------------------------------------------




 MACROSCOPIC STATIC DIELECTRIC TENSOR IONIC CONTRIBUTION
 ------------------------------------------------------
          26.555019     0.000005    -0.000003
           0.000005    15.335363    -0.000000
          -0.000003    -0.000000    18.355573
 ------------------------------------------------------


 ELASTIC MODULI IONIC CONTR (kBar)
 Direction    XX          YY          ZZ          XY          YZ          ZX
 --------------------------------------------------------------------------------
 XX        -158.7224   -224.9280    -61.1712     -0.0000     -0.0000      0.0000
 YY        -224.9280   -404.2684    -47.4801     -0.0000      0.0000      0.0000
 ZZ         -61.1712    -47.4801   -548.0047      0.0000     -0.0000     -0.0000
 XY          -0.0000     -0.0000      0.0000   -207.9234     -0.0000     -0.0000
 YZ          -0.0000      0.0000     -0.0000     -0.0000    -32.0897      0.0000
 ZX           0.0000      0.0000     -0.0000     -0.0000      0.0000    -32.4454
 --------------------------------------------------------------------------------


 PIEZOELECTRIC TENSOR IONIC CONTR  for field in x, y, z        (C/m^2)
          XX          YY          ZZ          XY          YZ          ZX
  --------------------------------------------------------------------------------
  x    -0.00050    -0.00132    -0.00083     0.00000    -0.00000    -0.00000
  y    -0.00022    -0.00029     0.00014     0.00000    -0.00000    -0.00000
  z    -0.00028    -0.00010    -0.00024     0.00000    -0.00000     0.00000


--------------------------------------------------------------------------------------------------------


 writing wavefunctions
     LOOP+:  cpu time 6927.2327: real time 7089.4789
    4ORBIT:  cpu time    0.0000: real time    0.0000
 BZINTS: Fermi energy:  5.095099; 80.000000 electrons
         Band energy:-648.918360;  BLOECHL correction:  0.000000

 total amount of memory used by VASP MPI-rank0   260250. kBytes
=======================================================================

   base      :      30000. kBytes
   nonl-proj :     159570. kBytes
   fftplans  :       4742. kBytes
   grid      :      12016. kBytes
   one-center:        124. kBytes
   wavefun   :      53798. kBytes

  
  
 General timing and accounting informations for this job:
 ========================================================
  
                  Total CPU time used (sec):     6933.252
                            User time (sec):     6908.395
                          System time (sec):       24.857
                         Elapsed time (sec):     7095.902
  
                   Maximum memory used (kb):      744852.
                   Average memory used (kb):           0.
  
                          Minor page faults:     11858303
                          Major page faults:            0
                 Voluntary context switches:         2020
