<?xml version="1.0" encoding="ISO-8859-1"?>
<modeling>
 <generator>
  <i name="program" type="string">vasp </i>
  <i name="version" type="string">5.4.4.18Apr17-6-g9f103f2a35  </i>
  <i name="subversion" type="string">(build Mar 20 2018 18:01:20) complex            parallel </i>
  <i name="platform" type="string">LinuxGNU </i>
  <i name="date" type="string">2020 04 24 </i>
  <i name="time" type="string">12:03:34 </i>
 </generator>
 <incar>
  <i type="string" name="SYSTEM"> SnSe</i>
  <i type="int" name="ISTART">     0</i>
  <i type="string" name="PREC">accurate</i>
  <i type="int" name="ICHARG">     2</i>
  <i type="int" name="IBRION">     8</i>
  <i name="EDIFF">      0.00000010</i>
  <i name="EDIFFG">     -0.00100000</i>
  <i type="int" name="NSW">     1</i>
  <i name="ENCUT">    600.00000000</i>
  <i type="int" name="ISMEAR">    -5</i>
  <v type="int" name="KPOINT_BSE">    -1     0     0     0</v>
  <i type="logical" name="LEPSILON"> T  </i>
  <i type="logical" name="LRPA"> F  </i>
 </incar>
 <structure name="primitive_cell" >
  <crystal>
   <varray name="basis" >
    <v>       4.16842225       0.00000000       0.00000000 </v>
    <v>       0.00000000       4.53967086       0.00000000 </v>
    <v>       0.00000000       0.00000000      11.56850013 </v>
   </varray>
   <i name="volume">    218.91379385 </i>
   <varray name="rec_basis" >
    <v>       0.23989892      -0.00000000       0.00000000 </v>
    <v>       0.00000000       0.22028029       0.00000000 </v>
    <v>      -0.00000000      -0.00000000       0.08644163 </v>
   </varray>
  </crystal>
  <varray name="positions" >
   <v>       0.25000000       0.11238621       0.11664596 </v>
   <v>       0.25000000       0.01916418       0.35489350 </v>
   <v>      -0.25000000      -0.48083582       0.14510650 </v>
   <v>       0.25000000       0.48083582      -0.14510650 </v>
   <v>      -0.25000000      -0.11238621      -0.11664596 </v>
   <v>      -0.25000000      -0.38761379       0.38335404 </v>
   <v>      -0.25000000      -0.01916418      -0.35489350 </v>
   <v>       0.25000000       0.38761379      -0.38335404 </v>
  </varray>
 </structure>
 <varray name="primitive_index" >
  <v type="int" >        1 </v>
  <v type="int" >        7 </v>
  <v type="int" >        5 </v>
  <v type="int" >        6 </v>
  <v type="int" >        2 </v>
  <v type="int" >        3 </v>
  <v type="int" >        8 </v>
  <v type="int" >        4 </v>
 </varray>
 <kpoints>
  <generation param="Gamma">
   <v type="int" name="divisions">       8        8        4 </v>
   <v name="usershift">      0.00000000       0.00000000       0.00000000 </v>
   <v name="genvec1">      0.12500000       0.00000000       0.00000000 </v>
   <v name="genvec2">      0.00000000       0.12500000       0.00000000 </v>
   <v name="genvec3">      0.00000000       0.00000000       0.25000000 </v>
   <v name="shift">      0.00000000       0.00000000       0.00000000 </v>
  </generation>
  <varray name="kpointlist" >
   <v>       0.00000000       0.00000000       0.00000000 </v>
   <v>       0.12500000       0.00000000       0.00000000 </v>
   <v>       0.25000000       0.00000000       0.00000000 </v>
   <v>       0.37500000       0.00000000       0.00000000 </v>
   <v>       0.50000000       0.00000000       0.00000000 </v>
   <v>       0.00000000       0.12500000       0.00000000 </v>
   <v>       0.12500000       0.12500000       0.00000000 </v>
   <v>       0.25000000       0.12500000       0.00000000 </v>
   <v>       0.37500000       0.12500000       0.00000000 </v>
   <v>       0.50000000       0.12500000       0.00000000 </v>
   <v>       0.00000000       0.25000000       0.00000000 </v>
   <v>       0.12500000       0.25000000       0.00000000 </v>
   <v>       0.25000000       0.25000000       0.00000000 </v>
   <v>       0.37500000       0.25000000       0.00000000 </v>
   <v>       0.50000000       0.25000000       0.00000000 </v>
   <v>       0.00000000       0.37500000       0.00000000 </v>
   <v>       0.12500000       0.37500000       0.00000000 </v>
   <v>       0.25000000       0.37500000       0.00000000 </v>
   <v>       0.37500000       0.37500000       0.00000000 </v>
   <v>       0.50000000       0.37500000       0.00000000 </v>
   <v>       0.00000000       0.50000000       0.00000000 </v>
   <v>       0.12500000       0.50000000       0.00000000 </v>
   <v>       0.25000000       0.50000000       0.00000000 </v>
   <v>       0.37500000       0.50000000       0.00000000 </v>
   <v>       0.50000000       0.50000000       0.00000000 </v>
   <v>       0.00000000       0.00000000       0.25000000 </v>
   <v>       0.12500000       0.00000000       0.25000000 </v>
   <v>       0.25000000       0.00000000       0.25000000 </v>
   <v>       0.37500000       0.00000000       0.25000000 </v>
   <v>       0.50000000       0.00000000       0.25000000 </v>
   <v>       0.00000000       0.12500000       0.25000000 </v>
   <v>       0.12500000       0.12500000       0.25000000 </v>
   <v>       0.25000000       0.12500000       0.25000000 </v>
   <v>       0.37500000       0.12500000       0.25000000 </v>
   <v>       0.50000000       0.12500000       0.25000000 </v>
   <v>       0.00000000       0.25000000       0.25000000 </v>
   <v>       0.12500000       0.25000000       0.25000000 </v>
   <v>       0.25000000       0.25000000       0.25000000 </v>
   <v>       0.37500000       0.25000000       0.25000000 </v>
   <v>       0.50000000       0.25000000       0.25000000 </v>
   <v>       0.00000000       0.37500000       0.25000000 </v>
   <v>       0.12500000       0.37500000       0.25000000 </v>
   <v>       0.25000000       0.37500000       0.25000000 </v>
   <v>       0.37500000       0.37500000       0.25000000 </v>
   <v>       0.50000000       0.37500000       0.25000000 </v>
   <v>       0.00000000       0.50000000       0.25000000 </v>
   <v>       0.12500000       0.50000000       0.25000000 </v>
   <v>       0.25000000       0.50000000       0.25000000 </v>
   <v>       0.37500000       0.50000000       0.25000000 </v>
   <v>       0.50000000       0.50000000       0.25000000 </v>
   <v>       0.00000000       0.00000000       0.50000000 </v>
   <v>       0.12500000       0.00000000       0.50000000 </v>
   <v>       0.25000000       0.00000000       0.50000000 </v>
   <v>       0.37500000       0.00000000       0.50000000 </v>
   <v>       0.50000000       0.00000000       0.50000000 </v>
   <v>       0.00000000       0.12500000       0.50000000 </v>
   <v>       0.12500000       0.12500000       0.50000000 </v>
   <v>       0.25000000       0.12500000       0.50000000 </v>
   <v>       0.37500000       0.12500000       0.50000000 </v>
   <v>       0.50000000       0.12500000       0.50000000 </v>
   <v>       0.00000000       0.25000000       0.50000000 </v>
   <v>       0.12500000       0.25000000       0.50000000 </v>
   <v>       0.25000000       0.25000000       0.50000000 </v>
   <v>       0.37500000       0.25000000       0.50000000 </v>
   <v>       0.50000000       0.25000000       0.50000000 </v>
   <v>       0.00000000       0.37500000       0.50000000 </v>
   <v>       0.12500000       0.37500000       0.50000000 </v>
   <v>       0.25000000       0.37500000       0.50000000 </v>
   <v>       0.37500000       0.37500000       0.50000000 </v>
   <v>       0.50000000       0.37500000       0.50000000 </v>
   <v>       0.00000000       0.50000000       0.50000000 </v>
   <v>       0.12500000       0.50000000       0.50000000 </v>
   <v>       0.25000000       0.50000000       0.50000000 </v>
   <v>       0.37500000       0.50000000       0.50000000 </v>
   <v>       0.50000000       0.50000000       0.50000000 </v>
  </varray>
  <varray name="weights" >
   <v>       0.00390625 </v>
   <v>       0.00781250 </v>
   <v>       0.00781250 </v>
   <v>       0.00781250 </v>
   <v>       0.00390625 </v>
   <v>       0.00781250 </v>
   <v>       0.01562500 </v>
   <v>       0.01562500 </v>
   <v>       0.01562500 </v>
   <v>       0.00781250 </v>
   <v>       0.00781250 </v>
   <v>       0.01562500 </v>
   <v>       0.01562500 </v>
   <v>       0.01562500 </v>
   <v>       0.00781250 </v>
   <v>       0.00781250 </v>
   <v>       0.01562500 </v>
   <v>       0.01562500 </v>
   <v>       0.01562500 </v>
   <v>       0.00781250 </v>
   <v>       0.00390625 </v>
   <v>       0.00781250 </v>
   <v>       0.00781250 </v>
   <v>       0.00781250 </v>
   <v>       0.00390625 </v>
   <v>       0.00781250 </v>
   <v>       0.01562500 </v>
   <v>       0.01562500 </v>
   <v>       0.01562500 </v>
   <v>       0.00781250 </v>
   <v>       0.01562500 </v>
   <v>       0.03125000 </v>
   <v>       0.03125000 </v>
   <v>       0.03125000 </v>
   <v>       0.01562500 </v>
   <v>       0.01562500 </v>
   <v>       0.03125000 </v>
   <v>       0.03125000 </v>
   <v>       0.03125000 </v>
   <v>       0.01562500 </v>
   <v>       0.01562500 </v>
   <v>       0.03125000 </v>
   <v>       0.03125000 </v>
   <v>       0.03125000 </v>
   <v>       0.01562500 </v>
   <v>       0.00781250 </v>
   <v>       0.01562500 </v>
   <v>       0.01562500 </v>
   <v>       0.01562500 </v>
   <v>       0.00781250 </v>
   <v>       0.00390625 </v>
   <v>       0.00781250 </v>
   <v>       0.00781250 </v>
   <v>       0.00781250 </v>
   <v>       0.00390625 </v>
   <v>       0.00781250 </v>
   <v>       0.01562500 </v>
   <v>       0.01562500 </v>
   <v>       0.01562500 </v>
   <v>       0.00781250 </v>
   <v>       0.00781250 </v>
   <v>       0.01562500 </v>
   <v>       0.01562500 </v>
   <v>       0.01562500 </v>
   <v>       0.00781250 </v>
   <v>       0.00781250 </v>
   <v>       0.01562500 </v>
   <v>       0.01562500 </v>
   <v>       0.01562500 </v>
   <v>       0.00781250 </v>
   <v>       0.00390625 </v>
   <v>       0.00781250 </v>
   <v>       0.00781250 </v>
   <v>       0.00781250 </v>
   <v>       0.00390625 </v>
  </varray>
  <varray name="tetrahedronlist"  type="int" >
   <v type="int" >        2        1        2        7       26 </v>
   <v type="int" >        2        1        6        7       26 </v>
   <v type="int" >        2        6        7       26       31 </v>
   <v type="int" >        2        2        7       26       27 </v>
   <v type="int" >        2        7       26       27       32 </v>
   <v type="int" >        2        7       26       31       32 </v>
   <v type="int" >        2        2        3        8       27 </v>
   <v type="int" >        2        2        7        8       27 </v>
   <v type="int" >        2        7        8       27       32 </v>
   <v type="int" >        2        3        8       27       28 </v>
   <v type="int" >        2        8       27       28       33 </v>
   <v type="int" >        2        8       27       32       33 </v>
   <v type="int" >        2        3        4        9       28 </v>
   <v type="int" >        2        3        8        9       28 </v>
   <v type="int" >        2        8        9       28       33 </v>
   <v type="int" >        2        4        9       28       29 </v>
   <v type="int" >        2        9       28       29       34 </v>
   <v type="int" >        2        9       28       33       34 </v>
   <v type="int" >        2        4        5       10       29 </v>
   <v type="int" >        2        4        9       10       29 </v>
   <v type="int" >        2        9       10       29       34 </v>
   <v type="int" >        2        5       10       29       30 </v>
   <v type="int" >        2       10       29       30       35 </v>
   <v type="int" >        2       10       29       34       35 </v>
   <v type="int" >        2        4        5        9       30 </v>
   <v type="int" >        2        5        9       10       30 </v>
   <v type="int" >        2        9       10       30       35 </v>
   <v type="int" >        2        4        9       29       30 </v>
   <v type="int" >        2        9       29       30       34 </v>
   <v type="int" >        2        9       30       34       35 </v>
   <v type="int" >        2        3        4        8       29 </v>
   <v type="int" >        2        4        8        9       29 </v>
   <v type="int" >        2        8        9       29       34 </v>
   <v type="int" >        2        3        8       28       29 </v>
   <v type="int" >        2        8       28       29       33 </v>
   <v type="int" >        2        8       29       33       34 </v>
   <v type="int" >        2        2        3        7       28 </v>
   <v type="int" >        2        3        7        8       28 </v>
   <v type="int" >        2        7        8       28       33 </v>
   <v type="int" >        2        2        7       27       28 </v>
   <v type="int" >        2        7       27       28       32 </v>
   <v type="int" >        2        7       28       32       33 </v>
   <v type="int" >        2        1        2        6       27 </v>
   <v type="int" >        2        2        6        7       27 </v>
   <v type="int" >        2        6        7       27       32 </v>
   <v type="int" >        2        1        6       26       27 </v>
   <v type="int" >        2        6       26       27       31 </v>
   <v type="int" >        2        6       27       31       32 </v>
   <v type="int" >        2        6        7       12       31 </v>
   <v type="int" >        2        6       11       12       31 </v>
   <v type="int" >        2       11       12       31       36 </v>
   <v type="int" >        2        7       12       31       32 </v>
   <v type="int" >        2       12       31       32       37 </v>
   <v type="int" >        2       12       31       36       37 </v>
   <v type="int" >        2        7        8       13       32 </v>
   <v type="int" >        2        7       12       13       32 </v>
   <v type="int" >        2       12       13       32       37 </v>
   <v type="int" >        2        8       13       32       33 </v>
   <v type="int" >        2       13       32       33       38 </v>
   <v type="int" >        2       13       32       37       38 </v>
   <v type="int" >        2        8        9       14       33 </v>
   <v type="int" >        2        8       13       14       33 </v>
   <v type="int" >        2       13       14       33       38 </v>
   <v type="int" >        2        9       14       33       34 </v>
   <v type="int" >        2       14       33       34       39 </v>
   <v type="int" >        2       14       33       38       39 </v>
   <v type="int" >        2        9       10       15       34 </v>
   <v type="int" >        2        9       14       15       34 </v>
   <v type="int" >        2       14       15       34       39 </v>
   <v type="int" >        2       10       15       34       35 </v>
   <v type="int" >        2       15       34       35       40 </v>
   <v type="int" >        2       15       34       39       40 </v>
   <v type="int" >        2        9       10       14       35 </v>
   <v type="int" >        2       10       14       15       35 </v>
   <v type="int" >        2       14       15       35       40 </v>
   <v type="int" >        2        9       14       34       35 </v>
   <v type="int" >        2       14       34       35       39 </v>
   <v type="int" >        2       14       35       39       40 </v>
   <v type="int" >        2        8        9       13       34 </v>
   <v type="int" >        2        9       13       14       34 </v>
   <v type="int" >        2       13       14       34       39 </v>
   <v type="int" >        2        8       13       33       34 </v>
   <v type="int" >        2       13       33       34       38 </v>
   <v type="int" >        2       13       34       38       39 </v>
   <v type="int" >        2        7        8       12       33 </v>
   <v type="int" >        2        8       12       13       33 </v>
   <v type="int" >        2       12       13       33       38 </v>
   <v type="int" >        2        7       12       32       33 </v>
   <v type="int" >        2       12       32       33       37 </v>
   <v type="int" >        2       12       33       37       38 </v>
   <v type="int" >        2        6        7       11       32 </v>
   <v type="int" >        2        7       11       12       32 </v>
   <v type="int" >        2       11       12       32       37 </v>
   <v type="int" >        2        6       11       31       32 </v>
   <v type="int" >        2       11       31       32       36 </v>
   <v type="int" >        2       11       32       36       37 </v>
   <v type="int" >        2       11       12       17       36 </v>
   <v type="int" >        2       11       16       17       36 </v>
   <v type="int" >        2       16       17       36       41 </v>
   <v type="int" >        2       12       17       36       37 </v>
   <v type="int" >        2       17       36       37       42 </v>
   <v type="int" >        2       17       36       41       42 </v>
   <v type="int" >        2       12       13       18       37 </v>
   <v type="int" >        2       12       17       18       37 </v>
   <v type="int" >        2       17       18       37       42 </v>
   <v type="int" >        2       13       18       37       38 </v>
   <v type="int" >        2       18       37       38       43 </v>
   <v type="int" >        2       18       37       42       43 </v>
   <v type="int" >        2       13       14       19       38 </v>
   <v type="int" >        2       13       18       19       38 </v>
   <v type="int" >        2       18       19       38       43 </v>
   <v type="int" >        2       14       19       38       39 </v>
   <v type="int" >        2       19       38       39       44 </v>
   <v type="int" >        2       19       38       43       44 </v>
   <v type="int" >        2       14       15       20       39 </v>
   <v type="int" >        2       14       19       20       39 </v>
   <v type="int" >        2       19       20       39       44 </v>
   <v type="int" >        2       15       20       39       40 </v>
   <v type="int" >        2       20       39       40       45 </v>
   <v type="int" >        2       20       39       44       45 </v>
   <v type="int" >        2       14       15       19       40 </v>
   <v type="int" >        2       15       19       20       40 </v>
   <v type="int" >        2       19       20       40       45 </v>
   <v type="int" >        2       14       19       39       40 </v>
   <v type="int" >        2       19       39       40       44 </v>
   <v type="int" >        2       19       40       44       45 </v>
   <v type="int" >        2       13       14       18       39 </v>
   <v type="int" >        2       14       18       19       39 </v>
   <v type="int" >        2       18       19       39       44 </v>
   <v type="int" >        2       13       18       38       39 </v>
   <v type="int" >        2       18       38       39       43 </v>
   <v type="int" >        2       18       39       43       44 </v>
   <v type="int" >        2       12       13       17       38 </v>
   <v type="int" >        2       13       17       18       38 </v>
   <v type="int" >        2       17       18       38       43 </v>
   <v type="int" >        2       12       17       37       38 </v>
   <v type="int" >        2       17       37       38       42 </v>
   <v type="int" >        2       17       38       42       43 </v>
   <v type="int" >        2       11       12       16       37 </v>
   <v type="int" >        2       12       16       17       37 </v>
   <v type="int" >        2       16       17       37       42 </v>
   <v type="int" >        2       11       16       36       37 </v>
   <v type="int" >        2       16       36       37       41 </v>
   <v type="int" >        2       16       37       41       42 </v>
   <v type="int" >        2       16       17       22       41 </v>
   <v type="int" >        2       16       21       22       41 </v>
   <v type="int" >        2       21       22       41       46 </v>
   <v type="int" >        2       17       22       41       42 </v>
   <v type="int" >        2       22       41       42       47 </v>
   <v type="int" >        2       22       41       46       47 </v>
   <v type="int" >        2       17       18       23       42 </v>
   <v type="int" >        2       17       22       23       42 </v>
   <v type="int" >        2       22       23       42       47 </v>
   <v type="int" >        2       18       23       42       43 </v>
   <v type="int" >        2       23       42       43       48 </v>
   <v type="int" >        2       23       42       47       48 </v>
   <v type="int" >        2       18       19       24       43 </v>
   <v type="int" >        2       18       23       24       43 </v>
   <v type="int" >        2       23       24       43       48 </v>
   <v type="int" >        2       19       24       43       44 </v>
   <v type="int" >        2       24       43       44       49 </v>
   <v type="int" >        2       24       43       48       49 </v>
   <v type="int" >        2       19       20       25       44 </v>
   <v type="int" >        2       19       24       25       44 </v>
   <v type="int" >        2       24       25       44       49 </v>
   <v type="int" >        2       20       25       44       45 </v>
   <v type="int" >        2       25       44       45       50 </v>
   <v type="int" >        2       25       44       49       50 </v>
   <v type="int" >        2       19       20       24       45 </v>
   <v type="int" >        2       20       24       25       45 </v>
   <v type="int" >        2       24       25       45       50 </v>
   <v type="int" >        2       19       24       44       45 </v>
   <v type="int" >        2       24       44       45       49 </v>
   <v type="int" >        2       24       45       49       50 </v>
   <v type="int" >        2       18       19       23       44 </v>
   <v type="int" >        2       19       23       24       44 </v>
   <v type="int" >        2       23       24       44       49 </v>
   <v type="int" >        2       18       23       43       44 </v>
   <v type="int" >        2       23       43       44       48 </v>
   <v type="int" >        2       23       44       48       49 </v>
   <v type="int" >        2       17       18       22       43 </v>
   <v type="int" >        2       18       22       23       43 </v>
   <v type="int" >        2       22       23       43       48 </v>
   <v type="int" >        2       17       22       42       43 </v>
   <v type="int" >        2       22       42       43       47 </v>
   <v type="int" >        2       22       43       47       48 </v>
   <v type="int" >        2       16       17       21       42 </v>
   <v type="int" >        2       17       21       22       42 </v>
   <v type="int" >        2       21       22       42       47 </v>
   <v type="int" >        2       16       21       41       42 </v>
   <v type="int" >        2       21       41       42       46 </v>
   <v type="int" >        2       21       42       46       47 </v>
   <v type="int" >        2       17       21       22       46 </v>
   <v type="int" >        2       16       17       21       46 </v>
   <v type="int" >        2       16       17       41       46 </v>
   <v type="int" >        2       17       22       46       47 </v>
   <v type="int" >        2       17       42       46       47 </v>
   <v type="int" >        2       17       41       42       46 </v>
   <v type="int" >        2       18       22       23       47 </v>
   <v type="int" >        2       17       18       22       47 </v>
   <v type="int" >        2       17       18       42       47 </v>
   <v type="int" >        2       18       23       47       48 </v>
   <v type="int" >        2       18       43       47       48 </v>
   <v type="int" >        2       18       42       43       47 </v>
   <v type="int" >        2       19       23       24       48 </v>
   <v type="int" >        2       18       19       23       48 </v>
   <v type="int" >        2       18       19       43       48 </v>
   <v type="int" >        2       19       24       48       49 </v>
   <v type="int" >        2       19       44       48       49 </v>
   <v type="int" >        2       19       43       44       48 </v>
   <v type="int" >        2       20       24       25       49 </v>
   <v type="int" >        2       19       20       24       49 </v>
   <v type="int" >        2       19       20       44       49 </v>
   <v type="int" >        2       20       25       49       50 </v>
   <v type="int" >        2       20       45       49       50 </v>
   <v type="int" >        2       20       44       45       49 </v>
   <v type="int" >        2       19       24       25       50 </v>
   <v type="int" >        2       19       20       25       50 </v>
   <v type="int" >        2       19       20       45       50 </v>
   <v type="int" >        2       19       24       49       50 </v>
   <v type="int" >        2       19       44       49       50 </v>
   <v type="int" >        2       19       44       45       50 </v>
   <v type="int" >        2       18       23       24       49 </v>
   <v type="int" >        2       18       19       24       49 </v>
   <v type="int" >        2       18       19       44       49 </v>
   <v type="int" >        2       18       23       48       49 </v>
   <v type="int" >        2       18       43       48       49 </v>
   <v type="int" >        2       18       43       44       49 </v>
   <v type="int" >        2       17       22       23       48 </v>
   <v type="int" >        2       17       18       23       48 </v>
   <v type="int" >        2       17       18       43       48 </v>
   <v type="int" >        2       17       22       47       48 </v>
   <v type="int" >        2       17       42       47       48 </v>
   <v type="int" >        2       17       42       43       48 </v>
   <v type="int" >        2       16       21       22       47 </v>
   <v type="int" >        2       16       17       22       47 </v>
   <v type="int" >        2       16       17       42       47 </v>
   <v type="int" >        2       16       21       46       47 </v>
   <v type="int" >        2       16       41       46       47 </v>
   <v type="int" >        2       16       41       42       47 </v>
   <v type="int" >        2       12       16       17       41 </v>
   <v type="int" >        2       11       12       16       41 </v>
   <v type="int" >        2       11       12       36       41 </v>
   <v type="int" >        2       12       17       41       42 </v>
   <v type="int" >        2       12       37       41       42 </v>
   <v type="int" >        2       12       36       37       41 </v>
   <v type="int" >        2       13       17       18       42 </v>
   <v type="int" >        2       12       13       17       42 </v>
   <v type="int" >        2       12       13       37       42 </v>
   <v type="int" >        2       13       18       42       43 </v>
   <v type="int" >        2       13       38       42       43 </v>
   <v type="int" >        2       13       37       38       42 </v>
   <v type="int" >        2       14       18       19       43 </v>
   <v type="int" >        2       13       14       18       43 </v>
   <v type="int" >        2       13       14       38       43 </v>
   <v type="int" >        2       14       19       43       44 </v>
   <v type="int" >        2       14       39       43       44 </v>
   <v type="int" >        2       14       38       39       43 </v>
   <v type="int" >        2       15       19       20       44 </v>
   <v type="int" >        2       14       15       19       44 </v>
   <v type="int" >        2       14       15       39       44 </v>
   <v type="int" >        2       15       20       44       45 </v>
   <v type="int" >        2       15       40       44       45 </v>
   <v type="int" >        2       15       39       40       44 </v>
   <v type="int" >        2       14       19       20       45 </v>
   <v type="int" >        2       14       15       20       45 </v>
   <v type="int" >        2       14       15       40       45 </v>
   <v type="int" >        2       14       19       44       45 </v>
   <v type="int" >        2       14       39       44       45 </v>
   <v type="int" >        2       14       39       40       45 </v>
   <v type="int" >        2       13       18       19       44 </v>
   <v type="int" >        2       13       14       19       44 </v>
   <v type="int" >        2       13       14       39       44 </v>
   <v type="int" >        2       13       18       43       44 </v>
   <v type="int" >        2       13       38       43       44 </v>
   <v type="int" >        2       13       38       39       44 </v>
   <v type="int" >        2       12       17       18       43 </v>
   <v type="int" >        2       12       13       18       43 </v>
   <v type="int" >        2       12       13       38       43 </v>
   <v type="int" >        2       12       17       42       43 </v>
   <v type="int" >        2       12       37       42       43 </v>
   <v type="int" >        2       12       37       38       43 </v>
   <v type="int" >        2       11       16       17       42 </v>
   <v type="int" >        2       11       12       17       42 </v>
   <v type="int" >        2       11       12       37       42 </v>
   <v type="int" >        2       11       16       41       42 </v>
   <v type="int" >        2       11       36       41       42 </v>
   <v type="int" >        2       11       36       37       42 </v>
   <v type="int" >        2        7       11       12       36 </v>
   <v type="int" >        2        6        7       11       36 </v>
   <v type="int" >        2        6        7       31       36 </v>
   <v type="int" >        2        7       12       36       37 </v>
   <v type="int" >        2        7       32       36       37 </v>
   <v type="int" >        2        7       31       32       36 </v>
   <v type="int" >        2        8       12       13       37 </v>
   <v type="int" >        2        7        8       12       37 </v>
   <v type="int" >        2        7        8       32       37 </v>
   <v type="int" >        2        8       13       37       38 </v>
   <v type="int" >        2        8       33       37       38 </v>
   <v type="int" >        2        8       32       33       37 </v>
   <v type="int" >        2        9       13       14       38 </v>
   <v type="int" >        2        8        9       13       38 </v>
   <v type="int" >        2        8        9       33       38 </v>
   <v type="int" >        2        9       14       38       39 </v>
   <v type="int" >        2        9       34       38       39 </v>
   <v type="int" >        2        9       33       34       38 </v>
   <v type="int" >        2       10       14       15       39 </v>
   <v type="int" >        2        9       10       14       39 </v>
   <v type="int" >        2        9       10       34       39 </v>
   <v type="int" >        2       10       15       39       40 </v>
   <v type="int" >        2       10       35       39       40 </v>
   <v type="int" >        2       10       34       35       39 </v>
   <v type="int" >        2        9       14       15       40 </v>
   <v type="int" >        2        9       10       15       40 </v>
   <v type="int" >        2        9       10       35       40 </v>
   <v type="int" >        2        9       14       39       40 </v>
   <v type="int" >        2        9       34       39       40 </v>
   <v type="int" >        2        9       34       35       40 </v>
   <v type="int" >        2        8       13       14       39 </v>
   <v type="int" >        2        8        9       14       39 </v>
   <v type="int" >        2        8        9       34       39 </v>
   <v type="int" >        2        8       13       38       39 </v>
   <v type="int" >        2        8       33       38       39 </v>
   <v type="int" >        2        8       33       34       39 </v>
   <v type="int" >        2        7       12       13       38 </v>
   <v type="int" >        2        7        8       13       38 </v>
   <v type="int" >        2        7        8       33       38 </v>
   <v type="int" >        2        7       12       37       38 </v>
   <v type="int" >        2        7       32       37       38 </v>
   <v type="int" >        2        7       32       33       38 </v>
   <v type="int" >        2        6       11       12       37 </v>
   <v type="int" >        2        6        7       12       37 </v>
   <v type="int" >        2        6        7       32       37 </v>
   <v type="int" >        2        6       11       36       37 </v>
   <v type="int" >        2        6       31       36       37 </v>
   <v type="int" >        2        6       31       32       37 </v>
   <v type="int" >        2        2        6        7       31 </v>
   <v type="int" >        2        1        2        6       31 </v>
   <v type="int" >        2        1        2       26       31 </v>
   <v type="int" >        2        2        7       31       32 </v>
   <v type="int" >        2        2       27       31       32 </v>
   <v type="int" >        2        2       26       27       31 </v>
   <v type="int" >        2        3        7        8       32 </v>
   <v type="int" >        2        2        3        7       32 </v>
   <v type="int" >        2        2        3       27       32 </v>
   <v type="int" >        2        3        8       32       33 </v>
   <v type="int" >        2        3       28       32       33 </v>
   <v type="int" >        2        3       27       28       32 </v>
   <v type="int" >        2        4        8        9       33 </v>
   <v type="int" >        2        3        4        8       33 </v>
   <v type="int" >        2        3        4       28       33 </v>
   <v type="int" >        2        4        9       33       34 </v>
   <v type="int" >        2        4       29       33       34 </v>
   <v type="int" >        2        4       28       29       33 </v>
   <v type="int" >        2        5        9       10       34 </v>
   <v type="int" >        2        4        5        9       34 </v>
   <v type="int" >        2        4        5       29       34 </v>
   <v type="int" >        2        5       10       34       35 </v>
   <v type="int" >        2        5       30       34       35 </v>
   <v type="int" >        2        5       29       30       34 </v>
   <v type="int" >        2        4        9       10       35 </v>
   <v type="int" >        2        4        5       10       35 </v>
   <v type="int" >        2        4        5       30       35 </v>
   <v type="int" >        2        4        9       34       35 </v>
   <v type="int" >        2        4       29       34       35 </v>
   <v type="int" >        2        4       29       30       35 </v>
   <v type="int" >        2        3        8        9       34 </v>
   <v type="int" >        2        3        4        9       34 </v>
   <v type="int" >        2        3        4       29       34 </v>
   <v type="int" >        2        3        8       33       34 </v>
   <v type="int" >        2        3       28       33       34 </v>
   <v type="int" >        2        3       28       29       34 </v>
   <v type="int" >        2        2        7        8       33 </v>
   <v type="int" >        2        2        3        8       33 </v>
   <v type="int" >        2        2        3       28       33 </v>
   <v type="int" >        2        2        7       32       33 </v>
   <v type="int" >        2        2       27       32       33 </v>
   <v type="int" >        2        2       27       28       33 </v>
   <v type="int" >        2        1        6        7       32 </v>
   <v type="int" >        2        1        2        7       32 </v>
   <v type="int" >        2        1        2       27       32 </v>
   <v type="int" >        2        1        6       31       32 </v>
   <v type="int" >        2        1       26       31       32 </v>
   <v type="int" >        2        1       26       27       32 </v>
   <v type="int" >        2       26       27       32       51 </v>
   <v type="int" >        2       26       31       32       51 </v>
   <v type="int" >        2       31       32       51       56 </v>
   <v type="int" >        2       27       32       51       52 </v>
   <v type="int" >        2       32       51       52       57 </v>
   <v type="int" >        2       32       51       56       57 </v>
   <v type="int" >        2       27       28       33       52 </v>
   <v type="int" >        2       27       32       33       52 </v>
   <v type="int" >        2       32       33       52       57 </v>
   <v type="int" >        2       28       33       52       53 </v>
   <v type="int" >        2       33       52       53       58 </v>
   <v type="int" >        2       33       52       57       58 </v>
   <v type="int" >        2       28       29       34       53 </v>
   <v type="int" >        2       28       33       34       53 </v>
   <v type="int" >        2       33       34       53       58 </v>
   <v type="int" >        2       29       34       53       54 </v>
   <v type="int" >        2       34       53       54       59 </v>
   <v type="int" >        2       34       53       58       59 </v>
   <v type="int" >        2       29       30       35       54 </v>
   <v type="int" >        2       29       34       35       54 </v>
   <v type="int" >        2       34       35       54       59 </v>
   <v type="int" >        2       30       35       54       55 </v>
   <v type="int" >        2       35       54       55       60 </v>
   <v type="int" >        2       35       54       59       60 </v>
   <v type="int" >        2       29       30       34       55 </v>
   <v type="int" >        2       30       34       35       55 </v>
   <v type="int" >        2       34       35       55       60 </v>
   <v type="int" >        2       29       34       54       55 </v>
   <v type="int" >        2       34       54       55       59 </v>
   <v type="int" >        2       34       55       59       60 </v>
   <v type="int" >        2       28       29       33       54 </v>
   <v type="int" >        2       29       33       34       54 </v>
   <v type="int" >        2       33       34       54       59 </v>
   <v type="int" >        2       28       33       53       54 </v>
   <v type="int" >        2       33       53       54       58 </v>
   <v type="int" >        2       33       54       58       59 </v>
   <v type="int" >        2       27       28       32       53 </v>
   <v type="int" >        2       28       32       33       53 </v>
   <v type="int" >        2       32       33       53       58 </v>
   <v type="int" >        2       27       32       52       53 </v>
   <v type="int" >        2       32       52       53       57 </v>
   <v type="int" >        2       32       53       57       58 </v>
   <v type="int" >        2       26       27       31       52 </v>
   <v type="int" >        2       27       31       32       52 </v>
   <v type="int" >        2       31       32       52       57 </v>
   <v type="int" >        2       26       31       51       52 </v>
   <v type="int" >        2       31       51       52       56 </v>
   <v type="int" >        2       31       52       56       57 </v>
   <v type="int" >        2       31       32       37       56 </v>
   <v type="int" >        2       31       36       37       56 </v>
   <v type="int" >        2       36       37       56       61 </v>
   <v type="int" >        2       32       37       56       57 </v>
   <v type="int" >        2       37       56       57       62 </v>
   <v type="int" >        2       37       56       61       62 </v>
   <v type="int" >        2       32       33       38       57 </v>
   <v type="int" >        2       32       37       38       57 </v>
   <v type="int" >        2       37       38       57       62 </v>
   <v type="int" >        2       33       38       57       58 </v>
   <v type="int" >        2       38       57       58       63 </v>
   <v type="int" >        2       38       57       62       63 </v>
   <v type="int" >        2       33       34       39       58 </v>
   <v type="int" >        2       33       38       39       58 </v>
   <v type="int" >        2       38       39       58       63 </v>
   <v type="int" >        2       34       39       58       59 </v>
   <v type="int" >        2       39       58       59       64 </v>
   <v type="int" >        2       39       58       63       64 </v>
   <v type="int" >        2       34       35       40       59 </v>
   <v type="int" >        2       34       39       40       59 </v>
   <v type="int" >        2       39       40       59       64 </v>
   <v type="int" >        2       35       40       59       60 </v>
   <v type="int" >        2       40       59       60       65 </v>
   <v type="int" >        2       40       59       64       65 </v>
   <v type="int" >        2       34       35       39       60 </v>
   <v type="int" >        2       35       39       40       60 </v>
   <v type="int" >        2       39       40       60       65 </v>
   <v type="int" >        2       34       39       59       60 </v>
   <v type="int" >        2       39       59       60       64 </v>
   <v type="int" >        2       39       60       64       65 </v>
   <v type="int" >        2       33       34       38       59 </v>
   <v type="int" >        2       34       38       39       59 </v>
   <v type="int" >        2       38       39       59       64 </v>
   <v type="int" >        2       33       38       58       59 </v>
   <v type="int" >        2       38       58       59       63 </v>
   <v type="int" >        2       38       59       63       64 </v>
   <v type="int" >        2       32       33       37       58 </v>
   <v type="int" >        2       33       37       38       58 </v>
   <v type="int" >        2       37       38       58       63 </v>
   <v type="int" >        2       32       37       57       58 </v>
   <v type="int" >        2       37       57       58       62 </v>
   <v type="int" >        2       37       58       62       63 </v>
   <v type="int" >        2       31       32       36       57 </v>
   <v type="int" >        2       32       36       37       57 </v>
   <v type="int" >        2       36       37       57       62 </v>
   <v type="int" >        2       31       36       56       57 </v>
   <v type="int" >        2       36       56       57       61 </v>
   <v type="int" >        2       36       57       61       62 </v>
   <v type="int" >        2       36       37       42       61 </v>
   <v type="int" >        2       36       41       42       61 </v>
   <v type="int" >        2       41       42       61       66 </v>
   <v type="int" >        2       37       42       61       62 </v>
   <v type="int" >        2       42       61       62       67 </v>
   <v type="int" >        2       42       61       66       67 </v>
   <v type="int" >        2       37       38       43       62 </v>
   <v type="int" >        2       37       42       43       62 </v>
   <v type="int" >        2       42       43       62       67 </v>
   <v type="int" >        2       38       43       62       63 </v>
   <v type="int" >        2       43       62       63       68 </v>
   <v type="int" >        2       43       62       67       68 </v>
   <v type="int" >        2       38       39       44       63 </v>
   <v type="int" >        2       38       43       44       63 </v>
   <v type="int" >        2       43       44       63       68 </v>
   <v type="int" >        2       39       44       63       64 </v>
   <v type="int" >        2       44       63       64       69 </v>
   <v type="int" >        2       44       63       68       69 </v>
   <v type="int" >        2       39       40       45       64 </v>
   <v type="int" >        2       39       44       45       64 </v>
   <v type="int" >        2       44       45       64       69 </v>
   <v type="int" >        2       40       45       64       65 </v>
   <v type="int" >        2       45       64       65       70 </v>
   <v type="int" >        2       45       64       69       70 </v>
   <v type="int" >        2       39       40       44       65 </v>
   <v type="int" >        2       40       44       45       65 </v>
   <v type="int" >        2       44       45       65       70 </v>
   <v type="int" >        2       39       44       64       65 </v>
   <v type="int" >        2       44       64       65       69 </v>
   <v type="int" >        2       44       65       69       70 </v>
   <v type="int" >        2       38       39       43       64 </v>
   <v type="int" >        2       39       43       44       64 </v>
   <v type="int" >        2       43       44       64       69 </v>
   <v type="int" >        2       38       43       63       64 </v>
   <v type="int" >        2       43       63       64       68 </v>
   <v type="int" >        2       43       64       68       69 </v>
   <v type="int" >        2       37       38       42       63 </v>
   <v type="int" >        2       38       42       43       63 </v>
   <v type="int" >        2       42       43       63       68 </v>
   <v type="int" >        2       37       42       62       63 </v>
   <v type="int" >        2       42       62       63       67 </v>
   <v type="int" >        2       42       63       67       68 </v>
   <v type="int" >        2       36       37       41       62 </v>
   <v type="int" >        2       37       41       42       62 </v>
   <v type="int" >        2       41       42       62       67 </v>
   <v type="int" >        2       36       41       61       62 </v>
   <v type="int" >        2       41       61       62       66 </v>
   <v type="int" >        2       41       62       66       67 </v>
   <v type="int" >        2       41       42       47       66 </v>
   <v type="int" >        2       41       46       47       66 </v>
   <v type="int" >        2       46       47       66       71 </v>
   <v type="int" >        2       42       47       66       67 </v>
   <v type="int" >        2       47       66       67       72 </v>
   <v type="int" >        2       47       66       71       72 </v>
   <v type="int" >        2       42       43       48       67 </v>
   <v type="int" >        2       42       47       48       67 </v>
   <v type="int" >        2       47       48       67       72 </v>
   <v type="int" >        2       43       48       67       68 </v>
   <v type="int" >        2       48       67       68       73 </v>
   <v type="int" >        2       48       67       72       73 </v>
   <v type="int" >        2       43       44       49       68 </v>
   <v type="int" >        2       43       48       49       68 </v>
   <v type="int" >        2       48       49       68       73 </v>
   <v type="int" >        2       44       49       68       69 </v>
   <v type="int" >        2       49       68       69       74 </v>
   <v type="int" >        2       49       68       73       74 </v>
   <v type="int" >        2       44       45       50       69 </v>
   <v type="int" >        2       44       49       50       69 </v>
   <v type="int" >        2       49       50       69       74 </v>
   <v type="int" >        2       45       50       69       70 </v>
   <v type="int" >        2       50       69       70       75 </v>
   <v type="int" >        2       50       69       74       75 </v>
   <v type="int" >        2       44       45       49       70 </v>
   <v type="int" >        2       45       49       50       70 </v>
   <v type="int" >        2       49       50       70       75 </v>
   <v type="int" >        2       44       49       69       70 </v>
   <v type="int" >        2       49       69       70       74 </v>
   <v type="int" >        2       49       70       74       75 </v>
   <v type="int" >        2       43       44       48       69 </v>
   <v type="int" >        2       44       48       49       69 </v>
   <v type="int" >        2       48       49       69       74 </v>
   <v type="int" >        2       43       48       68       69 </v>
   <v type="int" >        2       48       68       69       73 </v>
   <v type="int" >        2       48       69       73       74 </v>
   <v type="int" >        2       42       43       47       68 </v>
   <v type="int" >        2       43       47       48       68 </v>
   <v type="int" >        2       47       48       68       73 </v>
   <v type="int" >        2       42       47       67       68 </v>
   <v type="int" >        2       47       67       68       72 </v>
   <v type="int" >        2       47       68       72       73 </v>
   <v type="int" >        2       41       42       46       67 </v>
   <v type="int" >        2       42       46       47       67 </v>
   <v type="int" >        2       46       47       67       72 </v>
   <v type="int" >        2       41       46       66       67 </v>
   <v type="int" >        2       46       66       67       71 </v>
   <v type="int" >        2       46       67       71       72 </v>
   <v type="int" >        2       42       46       47       71 </v>
   <v type="int" >        2       41       42       46       71 </v>
   <v type="int" >        2       41       42       66       71 </v>
   <v type="int" >        2       42       47       71       72 </v>
   <v type="int" >        2       42       67       71       72 </v>
   <v type="int" >        2       42       66       67       71 </v>
   <v type="int" >        2       43       47       48       72 </v>
   <v type="int" >        2       42       43       47       72 </v>
   <v type="int" >        2       42       43       67       72 </v>
   <v type="int" >        2       43       48       72       73 </v>
   <v type="int" >        2       43       68       72       73 </v>
   <v type="int" >        2       43       67       68       72 </v>
   <v type="int" >        2       44       48       49       73 </v>
   <v type="int" >        2       43       44       48       73 </v>
   <v type="int" >        2       43       44       68       73 </v>
   <v type="int" >        2       44       49       73       74 </v>
   <v type="int" >        2       44       69       73       74 </v>
   <v type="int" >        2       44       68       69       73 </v>
   <v type="int" >        2       45       49       50       74 </v>
   <v type="int" >        2       44       45       49       74 </v>
   <v type="int" >        2       44       45       69       74 </v>
   <v type="int" >        2       45       50       74       75 </v>
   <v type="int" >        2       45       70       74       75 </v>
   <v type="int" >        2       45       69       70       74 </v>
   <v type="int" >        2       44       49       50       75 </v>
   <v type="int" >        2       44       45       50       75 </v>
   <v type="int" >        2       44       45       70       75 </v>
   <v type="int" >        2       44       49       74       75 </v>
   <v type="int" >        2       44       69       74       75 </v>
   <v type="int" >        2       44       69       70       75 </v>
   <v type="int" >        2       43       48       49       74 </v>
   <v type="int" >        2       43       44       49       74 </v>
   <v type="int" >        2       43       44       69       74 </v>
   <v type="int" >        2       43       48       73       74 </v>
   <v type="int" >        2       43       68       73       74 </v>
   <v type="int" >        2       43       68       69       74 </v>
   <v type="int" >        2       42       47       48       73 </v>
   <v type="int" >        2       42       43       48       73 </v>
   <v type="int" >        2       42       43       68       73 </v>
   <v type="int" >        2       42       47       72       73 </v>
   <v type="int" >        2       42       67       72       73 </v>
   <v type="int" >        2       42       67       68       73 </v>
   <v type="int" >        2       41       46       47       72 </v>
   <v type="int" >        2       41       42       47       72 </v>
   <v type="int" >        2       41       42       67       72 </v>
   <v type="int" >        2       41       46       71       72 </v>
   <v type="int" >        2       41       66       71       72 </v>
   <v type="int" >        2       41       66       67       72 </v>
   <v type="int" >        2       37       41       42       66 </v>
   <v type="int" >        2       36       37       41       66 </v>
   <v type="int" >        2       36       37       61       66 </v>
   <v type="int" >        2       37       42       66       67 </v>
   <v type="int" >        2       37       62       66       67 </v>
   <v type="int" >        2       37       61       62       66 </v>
   <v type="int" >        2       38       42       43       67 </v>
   <v type="int" >        2       37       38       42       67 </v>
   <v type="int" >        2       37       38       62       67 </v>
   <v type="int" >        2       38       43       67       68 </v>
   <v type="int" >        2       38       63       67       68 </v>
   <v type="int" >        2       38       62       63       67 </v>
   <v type="int" >        2       39       43       44       68 </v>
   <v type="int" >        2       38       39       43       68 </v>
   <v type="int" >        2       38       39       63       68 </v>
   <v type="int" >        2       39       44       68       69 </v>
   <v type="int" >        2       39       64       68       69 </v>
   <v type="int" >        2       39       63       64       68 </v>
   <v type="int" >        2       40       44       45       69 </v>
   <v type="int" >        2       39       40       44       69 </v>
   <v type="int" >        2       39       40       64       69 </v>
   <v type="int" >        2       40       45       69       70 </v>
   <v type="int" >        2       40       65       69       70 </v>
   <v type="int" >        2       40       64       65       69 </v>
   <v type="int" >        2       39       44       45       70 </v>
   <v type="int" >        2       39       40       45       70 </v>
   <v type="int" >        2       39       40       65       70 </v>
   <v type="int" >        2       39       44       69       70 </v>
   <v type="int" >        2       39       64       69       70 </v>
   <v type="int" >        2       39       64       65       70 </v>
   <v type="int" >        2       38       43       44       69 </v>
   <v type="int" >        2       38       39       44       69 </v>
   <v type="int" >        2       38       39       64       69 </v>
   <v type="int" >        2       38       43       68       69 </v>
   <v type="int" >        2       38       63       68       69 </v>
   <v type="int" >        2       38       63       64       69 </v>
   <v type="int" >        2       37       42       43       68 </v>
   <v type="int" >        2       37       38       43       68 </v>
   <v type="int" >        2       37       38       63       68 </v>
   <v type="int" >        2       37       42       67       68 </v>
   <v type="int" >        2       37       62       67       68 </v>
   <v type="int" >        2       37       62       63       68 </v>
   <v type="int" >        2       36       41       42       67 </v>
   <v type="int" >        2       36       37       42       67 </v>
   <v type="int" >        2       36       37       62       67 </v>
   <v type="int" >        2       36       41       66       67 </v>
   <v type="int" >        2       36       61       66       67 </v>
   <v type="int" >        2       36       61       62       67 </v>
   <v type="int" >        2       32       36       37       61 </v>
   <v type="int" >        2       31       32       36       61 </v>
   <v type="int" >        2       31       32       56       61 </v>
   <v type="int" >        2       32       37       61       62 </v>
   <v type="int" >        2       32       57       61       62 </v>
   <v type="int" >        2       32       56       57       61 </v>
   <v type="int" >        2       33       37       38       62 </v>
   <v type="int" >        2       32       33       37       62 </v>
   <v type="int" >        2       32       33       57       62 </v>
   <v type="int" >        2       33       38       62       63 </v>
   <v type="int" >        2       33       58       62       63 </v>
   <v type="int" >        2       33       57       58       62 </v>
   <v type="int" >        2       34       38       39       63 </v>
   <v type="int" >        2       33       34       38       63 </v>
   <v type="int" >        2       33       34       58       63 </v>
   <v type="int" >        2       34       39       63       64 </v>
   <v type="int" >        2       34       59       63       64 </v>
   <v type="int" >        2       34       58       59       63 </v>
   <v type="int" >        2       35       39       40       64 </v>
   <v type="int" >        2       34       35       39       64 </v>
   <v type="int" >        2       34       35       59       64 </v>
   <v type="int" >        2       35       40       64       65 </v>
   <v type="int" >        2       35       60       64       65 </v>
   <v type="int" >        2       35       59       60       64 </v>
   <v type="int" >        2       34       39       40       65 </v>
   <v type="int" >        2       34       35       40       65 </v>
   <v type="int" >        2       34       35       60       65 </v>
   <v type="int" >        2       34       39       64       65 </v>
   <v type="int" >        2       34       59       64       65 </v>
   <v type="int" >        2       34       59       60       65 </v>
   <v type="int" >        2       33       38       39       64 </v>
   <v type="int" >        2       33       34       39       64 </v>
   <v type="int" >        2       33       34       59       64 </v>
   <v type="int" >        2       33       38       63       64 </v>
   <v type="int" >        2       33       58       63       64 </v>
   <v type="int" >        2       33       58       59       64 </v>
   <v type="int" >        2       32       37       38       63 </v>
   <v type="int" >        2       32       33       38       63 </v>
   <v type="int" >        2       32       33       58       63 </v>
   <v type="int" >        2       32       37       62       63 </v>
   <v type="int" >        2       32       57       62       63 </v>
   <v type="int" >        2       32       57       58       63 </v>
   <v type="int" >        2       31       36       37       62 </v>
   <v type="int" >        2       31       32       37       62 </v>
   <v type="int" >        2       31       32       57       62 </v>
   <v type="int" >        2       31       36       61       62 </v>
   <v type="int" >        2       31       56       61       62 </v>
   <v type="int" >        2       31       56       57       62 </v>
   <v type="int" >        2       27       31       32       56 </v>
   <v type="int" >        2       26       27       31       56 </v>
   <v type="int" >        2       26       27       51       56 </v>
   <v type="int" >        2       27       32       56       57 </v>
   <v type="int" >        2       27       52       56       57 </v>
   <v type="int" >        2       27       51       52       56 </v>
   <v type="int" >        2       28       32       33       57 </v>
   <v type="int" >        2       27       28       32       57 </v>
   <v type="int" >        2       27       28       52       57 </v>
   <v type="int" >        2       28       33       57       58 </v>
   <v type="int" >        2       28       53       57       58 </v>
   <v type="int" >        2       28       52       53       57 </v>
   <v type="int" >        2       29       33       34       58 </v>
   <v type="int" >        2       28       29       33       58 </v>
   <v type="int" >        2       28       29       53       58 </v>
   <v type="int" >        2       29       34       58       59 </v>
   <v type="int" >        2       29       54       58       59 </v>
   <v type="int" >        2       29       53       54       58 </v>
   <v type="int" >        2       30       34       35       59 </v>
   <v type="int" >        2       29       30       34       59 </v>
   <v type="int" >        2       29       30       54       59 </v>
   <v type="int" >        2       30       35       59       60 </v>
   <v type="int" >        2       30       55       59       60 </v>
   <v type="int" >        2       30       54       55       59 </v>
   <v type="int" >        2       29       34       35       60 </v>
   <v type="int" >        2       29       30       35       60 </v>
   <v type="int" >        2       29       30       55       60 </v>
   <v type="int" >        2       29       34       59       60 </v>
   <v type="int" >        2       29       54       59       60 </v>
   <v type="int" >        2       29       54       55       60 </v>
   <v type="int" >        2       28       33       34       59 </v>
   <v type="int" >        2       28       29       34       59 </v>
   <v type="int" >        2       28       29       54       59 </v>
   <v type="int" >        2       28       33       58       59 </v>
   <v type="int" >        2       28       53       58       59 </v>
   <v type="int" >        2       28       53       54       59 </v>
   <v type="int" >        2       27       32       33       58 </v>
   <v type="int" >        2       27       28       33       58 </v>
   <v type="int" >        2       27       28       53       58 </v>
   <v type="int" >        2       27       32       57       58 </v>
   <v type="int" >        2       27       52       57       58 </v>
   <v type="int" >        2       27       52       53       58 </v>
   <v type="int" >        2       26       31       32       57 </v>
   <v type="int" >        2       26       27       32       57 </v>
   <v type="int" >        2       26       27       52       57 </v>
   <v type="int" >        2       26       31       56       57 </v>
   <v type="int" >        2       26       51       56       57 </v>
   <v type="int" >        2       26       51       52       57 </v>
  </varray>
  <i name="volumeweight">      0.00065104 </i>
 </kpoints>
 <parameters>
  <separator name="general" >
   <i type="string" name="SYSTEM">SnSe</i>
   <i type="logical" name="LCOMPAT"> F  </i>
  </separator>
  <separator name="electronic" >
   <i type="string" name="PREC">accura</i>
   <i name="ENMAX">    600.00000000</i>
   <i name="ENAUG">    446.84200000</i>
   <i name="EDIFF">      0.00000010</i>
   <i type="int" name="IALGO">    38</i>
   <i type="int" name="IWAVPR">    11</i>
   <i type="int" name="NBANDS">    48</i>
   <i name="NELECT">     80.00000000</i>
   <i type="int" name="TURBO">     0</i>
   <i type="int" name="IRESTART">     0</i>
   <i type="int" name="NREBOOT">     0</i>
   <i type="int" name="NMIN">     0</i>
   <i name="EREF">      0.00000000</i>
   <separator name="electronic smearing" >
    <i type="int" name="ISMEAR">    -5</i>
    <i name="SIGMA">      0.20000000</i>
    <i name="KSPACING">      0.50000000</i>
    <i type="logical" name="KGAMMA"> T  </i>
   </separator>
   <separator name="electronic projectors" >
    <i type="logical" name="LREAL"> F  </i>
    <v name="ROPT">      0.00000000      0.00000000</v>
    <i type="int" name="LMAXPAW">  -100</i>
    <i type="int" name="LMAXMIX">     2</i>
    <i type="logical" name="NLSPLINE"> F  </i>
   </separator>
   <separator name="electronic startup" >
    <i type="int" name="ISTART">     0</i>
    <i type="int" name="ICHARG">     2</i>
    <i type="int" name="INIWAV">     1</i>
   </separator>
   <separator name="electronic spin" >
    <i type="int" name="ISPIN">     1</i>
    <i type="logical" name="LNONCOLLINEAR"> F  </i>
    <v name="MAGMOM">      1.00000000      1.00000000      1.00000000      1.00000000      1.00000000      1.00000000      1.00000000      1.00000000</v>
    <i name="NUPDOWN">     -1.00000000</i>
    <i type="logical" name="LSORBIT"> F  </i>
    <v name="SAXIS">      0.00000000      0.00000000      1.00000000</v>
    <i type="logical" name="LSPIRAL"> F  </i>
    <v name="QSPIRAL">      0.00000000      0.00000000      0.00000000</v>
    <i type="logical" name="LZEROZ"> F  </i>
   </separator>
   <separator name="electronic exchange-correlation" >
    <i type="logical" name="LASPH"> F  </i>
    <i type="logical" name="LMETAGGA"> F  </i>
   </separator>
   <separator name="electronic convergence" >
    <i type="int" name="NELM">    60</i>
    <i type="int" name="NELMDL">    -5</i>
    <i type="int" name="NELMIN">     2</i>
    <i name="ENINI">    600.00000000</i>
    <separator name="electronic convergence detail" >
     <i type="logical" name="LDIAG"> T  </i>
     <i type="logical" name="LSUBROT"> F  </i>
     <i name="WEIMIN">      0.00100000</i>
     <i name="EBREAK">      0.00000000</i>
     <i name="DEPER">      0.30000000</i>
     <i type="int" name="NRMM">     4</i>
     <i name="TIME">      0.40000000</i>
    </separator>
   </separator>
   <separator name="electronic mixer" >
    <i name="AMIX">      0.40000000</i>
    <i name="BMIX">      1.00000000</i>
    <i name="AMIN">      0.10000000</i>
    <i name="AMIX_MAG">      1.60000000</i>
    <i name="BMIX_MAG">      1.00000000</i>
    <separator name="electronic mixer details" >
     <i type="int" name="IMIX">     4</i>
     <i type="logical" name="MIXFIRST"> F  </i>
     <i type="int" name="MAXMIX">   -45</i>
     <i name="WC">    100.00000000</i>
     <i type="int" name="INIMIX">     1</i>
     <i type="int" name="MIXPRE">     1</i>
     <i type="int" name="MREMOVE">     5</i>
    </separator>
   </separator>
   <separator name="electronic dipolcorrection" >
    <i type="logical" name="LDIPOL"> F  </i>
    <i type="logical" name="LMONO"> F  </i>
    <i type="int" name="IDIPOL">     0</i>
    <i name="EPSILON">      1.00000000</i>
    <v name="DIPOL">   -100.00000000   -100.00000000   -100.00000000</v>
    <i name="EFIELD">      0.00000000</i>
   </separator>
  </separator>
  <separator name="grids" >
   <i type="int" name="NGX">    36</i>
   <i type="int" name="NGY">    36</i>
   <i type="int" name="NGZ">    96</i>
   <i type="int" name="NGXF">    72</i>
   <i type="int" name="NGYF">    72</i>
   <i type="int" name="NGZF">   192</i>
   <i type="logical" name="ADDGRID"> F  </i>
  </separator>
  <separator name="ionic" >
   <i type="int" name="NSW">     1</i>
   <i type="int" name="IBRION">     8</i>
   <i type="int" name="MDALGO">     0</i>
   <i type="int" name="ISIF">     2</i>
   <i name="PSTRESS">      0.00000000</i>
   <i name="EDIFFG">     -0.00100000</i>
   <i type="int" name="NFREE">     0</i>
   <i name="POTIM">      0.50000000</i>
   <i name="SMASS">     -3.00000000</i>
   <i name="SCALEE">      1.00000000</i>
  </separator>
  <separator name="ionic md" >
   <i name="TEBEG">      0.00010000</i>
   <i name="TEEND">      0.00010000</i>
   <i type="int" name="NBLOCK">     1</i>
   <i type="int" name="KBLOCK">     1</i>
   <i type="int" name="NPACO">   256</i>
   <i name="APACO">     16.00000000</i>
  </separator>
  <separator name="symmetry" >
   <i type="int" name="ISYM">     2</i>
   <i name="SYMPREC">      0.00001000</i>
  </separator>
  <separator name="dos" >
   <i type="int" name="LORBIT">     0</i>
   <v name="RWIGS">     -1.00000000     -1.00000000</v>
   <i type="int" name="NEDOS">   301</i>
   <i name="EMIN">     10.00000000</i>
   <i name="EMAX">    -10.00000000</i>
   <i name="EFERMI">      0.00000000</i>
  </separator>
  <separator name="writing" >
   <i type="int" name="NWRITE">     2</i>
   <i type="logical" name="LWAVE"> T  </i>
   <i type="logical" name="LDOWNSAMPLE"> F  </i>
   <i type="logical" name="LCHARG"> T  </i>
   <i type="logical" name="LPARD"> F  </i>
   <i type="logical" name="LVTOT"> F  </i>
   <i type="logical" name="LVHAR"> F  </i>
   <i type="logical" name="LELF"> F  </i>
   <i type="logical" name="LOPTICS"> F  </i>
   <v name="STM">      0.00000000      0.00000000      0.00000000      0.00000000      0.00000000      0.00000000      0.00000000</v>
  </separator>
  <separator name="performance" >
   <i type="int" name="NPAR">     8</i>
   <i type="int" name="NSIM">     4</i>
   <i type="int" name="NBLK">    -1</i>
   <i type="logical" name="LPLANE"> T  </i>
   <i type="logical" name="LSCALAPACK"> T  </i>
   <i type="logical" name="LSCAAWARE"> F  </i>
   <i type="logical" name="LSCALU"> F  </i>
   <i type="logical" name="LASYNC"> F  </i>
   <i type="logical" name="LORBITALREAL"> F  </i>
  </separator>
  <separator name="miscellaneous" >
   <i type="int" name="IDIOT">     3</i>
   <i type="int" name="ISPECIAL">     0</i>
   <i type="logical" name="LMUSIC"> F  </i>
   <v name="POMASS">    118.71000000     78.96000000</v>
   <v name="DARWINR">      0.00000000      0.00000000</v>
   <v name="DARWINV">      1.00000000      1.00000000</v>
   <i type="logical" name="LCORR"> T  </i>
  </separator>
  <i type="logical" name="GGA_COMPAT"> T  </i>
  <i type="logical" name="LBERRY"> F  </i>
  <i type="int" name="ICORELEVEL">     0</i>
  <i type="logical" name="LDAU"> F  </i>
  <i type="int" name="I_CONSTRAINED_M">     0</i>
  <separator name="electronic exchange-correlation" >
   <i type="string" name="GGA">--</i>
   <i type="int" name="VOSKOWN">     0</i>
   <i type="logical" name="LHFCALC"> F  </i>
   <i type="string" name="PRECFOCK"></i>
   <i type="logical" name="LSYMGRAD"> F  </i>
   <i type="logical" name="LHFONE"> F  </i>
   <i type="logical" name="LRHFCALC"> F  </i>
   <i type="logical" name="LTHOMAS"> F  </i>
   <i type="logical" name="LMODELHF"> F  </i>
   <i name="ENCUT4O">     -1.00000000</i>
   <i type="int" name="EXXOEP">     0</i>
   <i type="int" name="FOURORBIT">     0</i>
   <i name="AEXX">      0.00000000</i>
   <i name="HFALPHA">      0.00000000</i>
   <i name="MCALPHA">      0.00000000</i>
   <i name="ALDAX">      1.00000000</i>
   <i name="AGGAX">      1.00000000</i>
   <i name="ALDAC">      1.00000000</i>
   <i name="AGGAC">      1.00000000</i>
   <i type="int" name="NKREDX">     1</i>
   <i type="int" name="NKREDY">     1</i>
   <i type="int" name="NKREDZ">     1</i>
   <i type="logical" name="SHIFTRED"> F  </i>
   <i type="logical" name="ODDONLY"> F  </i>
   <i type="logical" name="EVENONLY"> F  </i>
   <i type="int" name="LMAXFOCK">     0</i>
   <i type="int" name="NMAXFOCKAE">     0</i>
   <i type="logical" name="LFOCKAEDFT"> F  </i>
   <i name="HFSCREEN">      0.00000000</i>
   <i name="HFSCREENC">      0.00000000</i>
   <i type="int" name="NBANDSGWLOW">     0</i>
  </separator>
  <separator name="vdW DFT" >
   <i type="logical" name="LUSE_VDW"> F  </i>
   <i name="Zab_VDW">     -0.84910000</i>
   <i name="PARAM1">      0.12340000</i>
   <i name="PARAM2">      1.00000000</i>
   <i name="PARAM3">      0.00000000</i>
  </separator>
  <separator name="model GW" >
   <i type="int" name="MODEL_GW">     0</i>
   <i name="MODEL_EPS0">     16.41853454</i>
   <i name="MODEL_ALPHA">      1.00000000</i>
  </separator>
  <separator name="linear response parameters" >
   <i type="logical" name="LEPSILON"> T  </i>
   <i type="logical" name="LRPA"> F  </i>
   <i type="logical" name="LNABLA"> F  </i>
   <i type="logical" name="LVEL"> F  </i>
   <i type="int" name="KINTER">     0</i>
   <i name="CSHIFT">      0.10000000</i>
   <i name="OMEGAMAX">     -1.00000000</i>
   <i name="DEG_THRESHOLD">      0.00200000</i>
   <i name="RTIME">     -0.10000000</i>
   <i name="WPLASMAI">      0.00000000</i>
   <v name="DFIELD">      0.00000000      0.00000000      0.00000000</v>
   <v name="WPLASMA">      0.00000000      0.00000000      0.00000000      0.00000000      0.00000000      0.00000000      0.00000000      0.00000000      0.00000000</v>
  </separator>
  <separator name="orbital magnetization" >
   <i type="logical" name="NUCIND"> F  </i>
   <v name="MAGPOS">      0.00000000      0.00000000      0.00000000</v>
   <i type="logical" name="LNICSALL"> T  </i>
   <i type="logical" name="ORBITALMAG"> F  </i>
   <i type="logical" name="LMAGBLOCH"> F  </i>
   <i type="logical" name="LCHIMAG"> F  </i>
   <i type="logical" name="LGAUGE"> T  </i>
   <i type="int" name="MAGATOM">     0</i>
   <v name="MAGDIPOL">      0.00000000      0.00000000      0.00000000</v>
   <v name="AVECCONST">      0.00000000      0.00000000      0.00000000</v>
  </separator>
  <separator name="response functions" >
   <i type="logical" name="LADDER"> T  </i>
   <i type="logical" name="LRPAFORCE"> F  </i>
   <i type="logical" name="LFXC"> F  </i>
   <i type="logical" name="LHARTREE"> T  </i>
   <i type="int" name="IBSE">     0</i>
   <v type="int" name="KPOINT">    -1     0     0     0</v>
   <i type="logical" name="LTCTE"> F  </i>
   <i type="logical" name="LTETE"> F  </i>
   <i type="logical" name="LTRIPLET"> F  </i>
   <i type="logical" name="LFXCEPS"> F  </i>
   <i type="logical" name="LFXHEG"> F  </i>
   <i type="int" name="NATURALO">     2</i>
   <i type="logical" name="L2ORDER"> F  </i>
   <i type="logical" name="LMP2LT"> F  </i>
   <i type="logical" name="LUSEW"> F  </i>
   <i name="ENCUTGW">     -2.00000000</i>
   <i name="ENCUTGWSOFT">     -2.00000000</i>
   <i name="ENCUTLF">     -1.00000000</i>
   <i type="int" name="LMAXMP2">    -1</i>
   <i name="SCISSOR">      0.00000000</i>
   <i type="int" name="NOMEGA">     0</i>
   <i type="int" name="NOMEGAR">     0</i>
   <i type="int" name="NBANDSGW">    -1</i>
   <i type="int" name="NBANDSO">    -1</i>
   <i type="int" name="NBANDSV">    -1</i>
   <i type="int" name="NELM">     1</i>
   <i type="int" name="NELMHF">     1</i>
   <i type="int" name="DIM">     3</i>
   <i type="int" name="ANTIRES">     0</i>
   <i name="OMEGAMAX">    -30.00000000</i>
   <i name="OMEGAMIN">    -30.00000000</i>
   <i name="OMEGATL">   -200.00000000</i>
   <i type="int" name="OMEGAGRID">   140</i>
   <i name="CSHIFT">     -0.10000000</i>
   <i type="logical" name="SELFENERGY"> F  </i>
   <i type="logical" name="LSPECTRAL"> F  </i>
   <i type="logical" name="LSPECTRALGW"> F  </i>
   <i type="logical" name="LSINGLES"> F  </i>
   <i type="logical" name="LFERMIGW"> F  </i>
   <i type="logical" name="ODDONLYGW"> F  </i>
   <i type="logical" name="EVENONLYGW"> F  </i>
   <i type="int" name="NKREDLFX">     1</i>
   <i type="int" name="NKREDLFY">     1</i>
   <i type="int" name="NKREDLFZ">     1</i>
   <i type="int" name="MAXMEM">  2800</i>
   <i type="int" name="TELESCOPE">     0</i>
   <i type="int" name="TAUPAR">     1</i>
   <i type="int" name="OMEGAPAR">    -1</i>
   <i name="LAMBDA">      1.00000000</i>
  </separator>
  <separator name="External order field" >
   <i name="OFIELD_KAPPA">      0.00000000</i>
   <v name="OFIELD_K">      0.00000000      0.00000000      0.00000000</v>
   <i name="OFIELD_Q6_NEAR">      0.00000000</i>
   <i name="OFIELD_Q6_FAR">      0.00000000</i>
   <i name="OFIELD_A">      0.00000000</i>
  </separator>
 </parameters>
 <atominfo>
  <atoms>       8 </atoms>
  <types>       2 </types>
  <array name="atoms" >
   <dimension dim="1">ion</dimension>
   <field type="string">element</field>
   <field type="int">atomtype</field>
   <set>
    <rc><c>Sn</c><c>   1</c></rc>
    <rc><c>Sn</c><c>   1</c></rc>
    <rc><c>Sn</c><c>   1</c></rc>
    <rc><c>Sn</c><c>   1</c></rc>
    <rc><c>Se</c><c>   2</c></rc>
    <rc><c>Se</c><c>   2</c></rc>
    <rc><c>Se</c><c>   2</c></rc>
    <rc><c>Se</c><c>   2</c></rc>
   </set>
  </array>
  <array name="atomtypes" >
   <dimension dim="1">type</dimension>
   <field type="int">atomspertype</field>
   <field type="string">element</field>
   <field>mass</field>
   <field>valence</field>
   <field type="string">pseudopotential</field>
   <set>
    <rc><c>   4</c><c>Sn</c><c>    118.71000000</c><c>     14.00000000</c><c>  PAW_PBE Sn_d 06Sep2000                </c></rc>
    <rc><c>   4</c><c>Se</c><c>     78.96000000</c><c>      6.00000000</c><c>  PAW_PBE Se 06Sep2000                  </c></rc>
   </set>
  </array>
 </atominfo>
 <structure name="initialpos" >
  <crystal>
   <varray name="basis" >
    <v>       4.16842225       0.00000000       0.00000000 </v>
    <v>       0.00000000       4.53967086       0.00000000 </v>
    <v>       0.00000000       0.00000000      11.56850013 </v>
   </varray>
   <i name="volume">    218.91379385 </i>
   <varray name="rec_basis" >
    <v>       0.23989892      -0.00000000       0.00000000 </v>
    <v>       0.00000000       0.22028029       0.00000000 </v>
    <v>      -0.00000000      -0.00000000       0.08644163 </v>
   </varray>
  </crystal>
  <varray name="positions" >
   <v>       0.25000000       0.11238621       0.11664596 </v>
   <v>       0.75000000       0.88761379       0.88335404 </v>
   <v>       0.75000000       0.61238621       0.38335404 </v>
   <v>       0.25000000       0.38761379       0.61664596 </v>
   <v>       0.75000000       0.51916418       0.14510650 </v>
   <v>       0.25000000       0.48083582       0.85489350 </v>
   <v>       0.25000000       0.01916418       0.35489350 </v>
   <v>       0.75000000       0.98083582       0.64510650 </v>
  </varray>
 </structure>
 <calculation>
  <scstep>
   <time name="dav">   14.97   14.98</time>
   <time name="total">   15.17   15.20</time>
   <energy>
    <i name="alphaZ">    201.88417816 </i>
    <i name="ewald">  -5919.77645388 </i>
    <i name="hartreedc">  -2411.66136747 </i>
    <i name="XCdc">    224.34354228 </i>
    <i name="pawpsdc">   7116.73000302 </i>
    <i name="pawaedc">  -7210.55896847 </i>
    <i name="eentropy">      0.00000000 </i>
    <i name="bandstr">    317.38719313 </i>
    <i name="atom">   8600.94477988 </i>
    <i name="e_fr_energy">    919.29290664 </i>
    <i name="e_wo_entrp">    919.29290664 </i>
    <i name="e_0_energy">    919.29290664 </i>
   </energy>
  </scstep>
  <scstep>
   <time name="dav">   14.17   14.18</time>
   <time name="total">   14.25   14.26</time>
   <energy>
    <i name="e_fr_energy">    126.25731383 </i>
    <i name="e_wo_entrp">    126.25731383 </i>
    <i name="e_0_energy">    126.25731383 </i>
   </energy>
  </scstep>
  <scstep>
   <time name="dav">   16.07   16.08</time>
   <time name="total">   16.09   16.10</time>
   <energy>
    <i name="e_fr_energy">    -23.06099751 </i>
    <i name="e_wo_entrp">    -23.06099751 </i>
    <i name="e_0_energy">    -23.06099751 </i>
   </energy>
  </scstep>
  <scstep>
   <time name="dav">   15.95   15.98</time>
   <time name="total">   15.97   16.00</time>
   <energy>
    <i name="e_fr_energy">    -33.29099288 </i>
    <i name="e_wo_entrp">    -33.29099288 </i>
    <i name="e_0_energy">    -33.29099288 </i>
   </energy>
  </scstep>
  <scstep>
   <time name="dav">   16.65   16.66</time>
   <time name="total">   17.64   17.65</time>
   <energy>
    <i name="e_fr_energy">    -33.62364594 </i>
    <i name="e_wo_entrp">    -33.62364594 </i>
    <i name="e_0_energy">    -33.62364594 </i>
   </energy>
  </scstep>
  <scstep>
   <time name="dav">   20.03   20.50</time>
   <time name="total">   21.15   21.62</time>
   <energy>
    <i name="e_fr_energy">    -32.86726628 </i>
    <i name="e_wo_entrp">    -32.86726628 </i>
    <i name="e_0_energy">    -32.86726628 </i>
   </energy>
[...]
      </set>
      <set comment="kpoint 74">
       <r>  -16.1628    1.0000 </r>
       <r>  -16.1628    1.0000 </r>
       <r>  -16.1594    1.0000 </r>
       <r>  -16.1594    1.0000 </r>
       <r>  -16.1405    1.0000 </r>
       <r>  -16.1405    1.0000 </r>
       <r>  -16.1378    1.0000 </r>
       <r>  -16.1378    1.0000 </r>
       <r>  -16.1295    1.0000 </r>
       <r>  -16.1295    1.0000 </r>
       <r>  -16.1224    1.0000 </r>
       <r>  -16.1224    1.0000 </r>
       <r>  -16.1077    1.0000 </r>
       <r>  -16.1077    1.0000 </r>
       <r>  -16.1002    1.0000 </r>
       <r>  -16.1002    1.0000 </r>
       <r>  -16.0855    1.0000 </r>
       <r>  -16.0855    1.0000 </r>
       <r>  -16.0782    1.0000 </r>
       <r>  -16.0782    1.0000 </r>
       <r>   -7.3374    1.0000 </r>
       <r>   -7.3374    1.0000 </r>
       <r>   -7.2119    1.0000 </r>
       <r>   -7.2119    1.0000 </r>
       <r>   -1.8978    1.0000 </r>
       <r>   -1.8978    1.0000 </r>
       <r>   -1.2850    1.0000 </r>
       <r>   -1.2850    1.0000 </r>
       <r>    0.8004    1.0000 </r>
       <r>    0.8004    1.0000 </r>
       <r>    0.8388    1.0000 </r>
       <r>    0.8388    1.0000 </r>
       <r>    1.8955    1.0000 </r>
       <r>    1.8955    1.0000 </r>
       <r>    2.1238    1.0000 </r>
       <r>    2.1238    1.0000 </r>
       <r>    3.5467    1.0000 </r>
       <r>    3.5467    1.0000 </r>
       <r>    3.8019    1.0000 </r>
       <r>    3.8019    1.0000 </r>
       <r>    7.4357    0.0000 </r>
       <r>    7.4357    0.0000 </r>
       <r>    8.0587    0.0000 </r>
       <r>    8.0587    0.0000 </r>
       <r>    9.4235    0.0000 </r>
       <r>    9.4235    0.0000 </r>
       <r>    9.5143    0.0000 </r>
       <r>    9.5143    0.0000 </r>
      </set>
      <set comment="kpoint 75">
       <r>  -16.1634    1.0000 </r>
       <r>  -16.1634    1.0000 </r>
       <r>  -16.1634    1.0000 </r>
       <r>  -16.1634    1.0000 </r>
       <r>  -16.1381    1.0000 </r>
       <r>  -16.1381    1.0000 </r>
       <r>  -16.1381    1.0000 </r>
       <r>  -16.1381    1.0000 </r>
       <r>  -16.1255    1.0000 </r>
       <r>  -16.1255    1.0000 </r>
       <r>  -16.1255    1.0000 </r>
       <r>  -16.1255    1.0000 </r>
       <r>  -16.1040    1.0000 </r>
       <r>  -16.1040    1.0000 </r>
       <r>  -16.1040    1.0000 </r>
       <r>  -16.1040    1.0000 </r>
       <r>  -16.0810    1.0000 </r>
       <r>  -16.0810    1.0000 </r>
       <r>  -16.0810    1.0000 </r>
       <r>  -16.0810    1.0000 </r>
       <r>   -7.2143    1.0000 </r>
       <r>   -7.2143    1.0000 </r>
       <r>   -7.2143    1.0000 </r>
       <r>   -7.2143    1.0000 </r>
       <r>   -1.5297    1.0000 </r>
       <r>   -1.5297    1.0000 </r>
       <r>   -1.5297    1.0000 </r>
       <r>   -1.5297    1.0000 </r>
       <r>    0.7655    1.0000 </r>
       <r>    0.7655    1.0000 </r>
       <r>    0.7655    1.0000 </r>
       <r>    0.7655    1.0000 </r>
       <r>    1.5720    1.0000 </r>
       <r>    1.5720    1.0000 </r>
       <r>    1.5720    1.0000 </r>
       <r>    1.5720    1.0000 </r>
       <r>    3.7106    1.0000 </r>
       <r>    3.7106    1.0000 </r>
       <r>    3.7106    1.0000 </r>
       <r>    3.7106    1.0000 </r>
       <r>    7.5943    0.0000 </r>
       <r>    7.5943    0.0000 </r>
       <r>    7.5943    0.0000 </r>
       <r>    7.5943    0.0000 </r>
       <r>    9.7636    0.0000 </r>
       <r>    9.7636    0.0000 </r>
       <r>    9.7636    0.0000 </r>
       <r>    9.7636    0.0000 </r>
      </set>
     </set>
    </set>
   </array>
  </eigenvalues>
  <separator name="orbital magnetization" >
   <v name="MAGDIPOLOUT">      0.00000000      0.00000000      0.00000000</v>
  </separator>
  <dos>
   <i name="efermi">      5.09509948 </i>
   <total>
    <array>
     <dimension dim="1">gridpoints</dimension>
     <dimension dim="2">spin</dimension>
     <field>energy</field>
     <field>total</field>
     <field>integrated</field>
     <set>
      <set comment="spin 1">
       <r>   -18.1662     0.0000     0.0000 </r>
       <r>   -18.0661     0.0000     0.0000 </r>
       <r>   -17.9659     0.0000     0.0000 </r>
       <r>   -17.8657     0.0000     0.0000 </r>
       <r>   -17.7656     0.0000     0.0000 </r>
       <r>   -17.6654     0.0000     0.0000 </r>
       <r>   -17.5653     0.0000     0.0000 </r>
       <r>   -17.4651     0.0000     0.0000 </r>
       <r>   -17.3650     0.0000     0.0000 </r>
       <r>   -17.2648     0.0000     0.0000 </r>
       <r>   -17.1646     0.0000     0.0000 </r>
       <r>   -17.0645     0.0000     0.0000 </r>
       <r>   -16.9643     0.0000     0.0000 </r>
       <r>   -16.8642     0.0000     0.0000 </r>
       <r>   -16.7640     0.0000     0.0000 </r>
       <r>   -16.6639     0.0000     0.0000 </r>
       <r>   -16.5637     0.0000     0.0000 </r>
       <r>   -16.4636     0.0000     0.0000 </r>
       <r>   -16.3634     0.0000     0.0000 </r>
       <r>   -16.2632     0.0000     0.0000 </r>
       <r>   -16.1631   186.1065     0.2370 </r>
       <r>   -16.0629     0.0000    40.0000 </r>
       <r>   -15.9628     0.0000    40.0000 </r>
       <r>   -15.8626     0.0000    40.0000 </r>
       <r>   -15.7625     0.0000    40.0000 </r>
       <r>   -15.6623     0.0000    40.0000 </r>
       <r>   -15.5621     0.0000    40.0000 </r>
       <r>   -15.4620     0.0000    40.0000 </r>
       <r>   -15.3618     0.0000    40.0000 </r>
       <r>   -15.2617     0.0000    40.0000 </r>
       <r>   -15.1615     0.0000    40.0000 </r>
       <r>   -15.0614     0.0000    40.0000 </r>
       <r>   -14.9612     0.0000    40.0000 </r>
       <r>   -14.8611     0.0000    40.0000 </r>
       <r>   -14.7609     0.0000    40.0000 </r>
       <r>   -14.6607     0.0000    40.0000 </r>
       <r>   -14.5606     0.0000    40.0000 </r>
       <r>   -14.4604     0.0000    40.0000 </r>
       <r>   -14.3603     0.0000    40.0000 </r>
       <r>   -14.2601     0.0000    40.0000 </r>
       <r>   -14.1600     0.0000    40.0000 </r>
       <r>   -14.0598     0.0000    40.0000 </r>
       <r>   -13.9596     0.0000    40.0000 </r>
       <r>   -13.8595     0.0000    40.0000 </r>
       <r>   -13.7593     0.0000    40.0000 </r>
       <r>   -13.6592     0.0000    40.0000 </r>
       <r>   -13.5590     0.0000    40.0000 </r>
       <r>   -13.4589     0.0000    40.0000 </r>
       <r>   -13.3587     0.0000    40.0000 </r>
       <r>   -13.2585     0.0000    40.0000 </r>
       <r>   -13.1584     0.0000    40.0000 </r>
       <r>   -13.0582     0.0000    40.0000 </r>
       <r>   -12.9581     0.0000    40.0000 </r>
       <r>   -12.8579     0.0000    40.0000 </r>
       <r>   -12.7578     0.0000    40.0000 </r>
       <r>   -12.6576     0.0000    40.0000 </r>
       <r>   -12.5575     0.0000    40.0000 </r>
       <r>   -12.4573     0.0000    40.0000 </r>
       <r>   -12.3571     0.0000    40.0000 </r>
       <r>   -12.2570     0.0000    40.0000 </r>
       <r>   -12.1568     0.0000    40.0000 </r>
       <r>   -12.0567     0.0000    40.0000 </r>
       <r>   -11.9565     0.0000    40.0000 </r>
       <r>   -11.8564     0.0000    40.0000 </r>
       <r>   -11.7562     0.0000    40.0000 </r>
       <r>   -11.6560     0.0000    40.0000 </r>
       <r>   -11.5559     0.0000    40.0000 </r>
       <r>   -11.4557     0.0000    40.0000 </r>
       <r>   -11.3556     0.0000    40.0000 </r>
       <r>   -11.2554     0.0000    40.0000 </r>
       <r>   -11.1553     0.0000    40.0000 </r>
       <r>   -11.0551     0.0000    40.0000 </r>
       <r>   -10.9550     0.0000    40.0000 </r>
       <r>   -10.8548     0.0000    40.0000 </r>
       <r>   -10.7546     0.0000    40.0000 </r>
       <r>   -10.6545     0.0000    40.0000 </r>
       <r>   -10.5543     0.0000    40.0000 </r>
       <r>   -10.4542     0.0000    40.0000 </r>
       <r>   -10.3540     0.0000    40.0000 </r>
       <r>   -10.2539     0.0000    40.0000 </r>
       <r>   -10.1537     0.0000    40.0000 </r>
       <r>   -10.0535     0.0000    40.0000 </r>
       <r>    -9.9534     0.0000    40.0000 </r>
       <r>    -9.8532     0.0000    40.0000 </r>
       <r>    -9.7531     0.0000    40.0000 </r>
       <r>    -9.6529     0.0000    40.0000 </r>
       <r>    -9.5528     0.0000    40.0000 </r>
       <r>    -9.4526     0.0000    40.0000 </r>
       <r>    -9.3525     0.0000    40.0000 </r>
       <r>    -9.2523     0.0000    40.0000 </r>
       <r>    -9.1521     0.0000    40.0000 </r>
       <r>    -9.0520     0.0000    40.0000 </r>
       <r>    -8.9518     0.0000    40.0000 </r>
       <r>    -8.8517     0.0000    40.0000 </r>
       <r>    -8.7515     0.0000    40.0000 </r>
       <r>    -8.6514     0.0000    40.0000 </r>
       <r>    -8.5512     0.0000    40.0000 </r>
       <r>    -8.4510     0.0011    40.0000 </r>
       <r>    -8.3509     1.1502    40.0509 </r>
       <r>    -8.2507     1.7637    40.1955 </r>
       <r>    -8.1506     2.6245    40.4118 </r>
       <r>    -8.0504     3.3620    40.7263 </r>
       <r>    -7.9503     3.6354    41.0730 </r>
       <r>    -7.8501     4.0513    41.4562 </r>
       <r>    -7.7500     5.0470    41.9009 </r>
       <r>    -7.6498     4.4876    42.4232 </r>
       <r>    -7.5496     4.3898    42.8644 </r>
       <r>    -7.4495     8.1164    43.4057 </r>
       <r>    -7.3493    12.1840    44.4144 </r>
       <r>    -7.2492    16.5518    45.9424 </r>
       <r>    -7.1490     9.0964    47.3803 </r>
       <r>    -7.0489     3.0184    47.9731 </r>
       <r>    -6.9487     0.0000    48.0000 </r>
       <r>    -6.8485     0.0000    48.0000 </r>
       <r>    -6.7484     0.0000    48.0000 </r>
       <r>    -6.6482     0.0000    48.0000 </r>
       <r>    -6.5481     0.0000    48.0000 </r>
       <r>    -6.4479     0.0000    48.0000 </r>
       <r>    -6.3478     0.0000    48.0000 </r>
       <r>    -6.2476     0.0000    48.0000 </r>
       <r>    -6.1474     0.0000    48.0000 </r>
       <r>    -6.0473     0.0000    48.0000 </r>
       <r>    -5.9471     0.0000    48.0000 </r>
       <r>    -5.8470     0.0000    48.0000 </r>
       <r>    -5.7468     0.0000    48.0000 </r>
       <r>    -5.6467     0.0000    48.0000 </r>
       <r>    -5.5465     0.0000    48.0000 </r>
       <r>    -5.4464     0.0000    48.0000 </r>
       <r>    -5.3462     0.0000    48.0000 </r>
       <r>    -5.2460     0.0000    48.0000 </r>
       <r>    -5.1459     0.0000    48.0000 </r>
       <r>    -5.0457     0.0000    48.0000 </r>
       <r>    -4.9456     0.0000    48.0000 </r>
       <r>    -4.8454     0.0000    48.0000 </r>
       <r>    -4.7453     0.0000    48.0000 </r>
       <r>    -4.6451     0.0000    48.0000 </r>
       <r>    -4.5449     0.0000    48.0000 </r>
       <r>    -4.4448     0.0000    48.0000 </r>
       <r>    -4.3446     0.0000    48.0000 </r>
       <r>    -4.2445     0.0000    48.0000 </r>
       <r>    -4.1443     0.0000    48.0000 </r>
       <r>    -4.0442     0.0000    48.0000 </r>
       <r>    -3.9440     0.0000    48.0000 </r>
       <r>    -3.8439     0.0000    48.0000 </r>
       <r>    -3.7437     0.0000    48.0000 </r>
       <r>    -3.6435     0.0000    48.0000 </r>
       <r>    -3.5434     0.0000    48.0000 </r>
       <r>    -3.4432     0.0000    48.0000 </r>
       <r>    -3.3431     0.0000    48.0000 </r>
       <r>    -3.2429     0.0000    48.0000 </r>
       <r>    -3.1428     0.0000    48.0000 </r>
       <r>    -3.0426     0.0000    48.0000 </r>
       <r>    -2.9424     0.0000    48.0000 </r>
       <r>    -2.8423     0.0000    48.0000 </r>
       <r>    -2.7421     0.3281    48.0078 </r>
       <r>    -2.6420     1.3869    48.0972 </r>
       <r>    -2.5418     1.9270    48.2690 </r>
       <r>    -2.4417     2.7768    48.4840 </r>
       <r>    -2.3415     4.5420    48.8661 </r>
       <r>    -2.2414     4.5707    49.3267 </r>
       <r>    -2.1412     4.8007    49.8002 </r>
       <r>    -2.0410     4.4908    50.2678 </r>
       <r>    -1.9409     4.3251    50.7061 </r>
       <r>    -1.8407     4.9921    51.1588 </r>
       <r>    -1.7406     4.7738    51.6889 </r>
       <r>    -1.6404     3.6506    52.0945 </r>
       <r>    -1.5403     3.4478    52.4416 </r>
       <r>    -1.4401     5.6132    52.8564 </r>
       <r>    -1.3399     7.2796    53.5038 </r>
       <r>    -1.2398     4.7644    54.2138 </r>
       <r>    -1.1396     3.0746    54.5901 </r>
       <r>    -1.0395     2.2860    54.8550 </r>
       <r>    -0.9393     1.8031    55.0544 </r>
       <r>    -0.8392     1.5148    55.2197 </r>
       <r>    -0.7390     1.3242    55.3612 </r>
       <r>    -0.6389     1.1889    55.4866 </r>
       <r>    -0.5387     1.0981    55.6012 </r>
       <r>    -0.4385     0.9674    55.7054 </r>
       <r>    -0.3384     0.8170    55.7939 </r>
       <r>    -0.2382     0.7628    55.8734 </r>
       <r>    -0.1381     0.4949    55.9360 </r>
       <r>    -0.0379     0.2858    55.9747 </r>
       <r>     0.0622     0.1178    55.9946 </r>
       <r>     0.1624     0.0049    56.0000 </r>
       <r>     0.2626     0.0000    56.0000 </r>
       <r>     0.3627     0.0000    56.0000 </r>
       <r>     0.4629     0.3605    56.0113 </r>
       <r>     0.5630     1.4780    56.1019 </r>
       <r>     0.6632     2.0146    56.2750 </r>
       <r>     0.7633     2.5453    56.5085 </r>
       <r>     0.8635     3.1808    56.7894 </r>
       <r>     0.9637     3.6179    57.1376 </r>
       <r>     1.0638     4.6333    57.5471 </r>
       <r>     1.1640     4.4749    58.0238 </r>
       <r>     1.2641     4.1946    58.4481 </r>
       <r>     1.3643     4.4468    58.8799 </r>
       <r>     1.4644     4.5222    59.3318 </r>
       <r>     1.5646     4.7818    59.7932 </r>
       <r>     1.6647     5.6007    60.3069 </r>
       <r>     1.7649     5.9345    60.8846 </r>
       <r>     1.8651     6.1970    61.4959 </r>
       <r>     1.9652     6.1434    62.1132 </r>
       <r>     2.0654     5.8762    62.7188 </r>
       <r>     2.1655     5.5404    63.2860 </r>
       <r>     2.2657     5.6689    63.8411 </r>
       <r>     2.3658     5.8025    64.4256 </r>
       <r>     2.4660     5.8977    65.0128 </r>
       <r>     2.5662     6.2348    65.6169 </r>
       <r>     2.6663     7.2200    66.2763 </r>
       <r>     2.7665     7.1764    67.0364 </r>
       <r>     2.8666     6.1063    67.6979 </r>
       <r>     2.9668     5.8968    68.2922 </r>
       <r>     3.0669     5.6575    68.8747 </r>
       <r>     3.1671     6.1351    69.4479 </r>
       <r>     3.2672     7.3785    70.1121 </r>
       <r>     3.3674     8.1341    70.9270 </r>
       <r>     3.4676     8.1892    71.7301 </r>
       <r>     3.5677     6.8169    72.5104 </r>
       <r>     3.6679     5.4623    73.1160 </r>
       <r>     3.7680     5.4473    73.6426 </r>
       <r>     3.8682     5.8097    74.1891 </r>
       <r>     3.9683     6.2511    74.8117 </r>
       <r>     4.0685     5.8472    75.4123 </r>
       <r>     4.1687     5.9100    75.9923 </r>
       <r>     4.2688     6.4314    76.6145 </r>
       <r>     4.3690     5.3975    77.2214 </r>
       <r>     4.4691     6.6592    77.8173 </r>
       <r>     4.5693     6.6642    78.5211 </r>
       <r>     4.6694     6.7920    79.1534 </r>
       <r>     4.7696     2.6290    79.7021 </r>
       <r>     4.8697     1.3010    79.8827 </r>
       <r>     4.9699     0.4773    79.9742 </r>
       <r>     5.0701     0.0594    79.9994 </r>
       <r>     5.1702     0.0000    80.0000 </r>
       <r>     5.2704     0.0000    80.0000 </r>
       <r>     5.3705     0.0000    80.0000 </r>
       <r>     5.4707     0.0000    80.0000 </r>
       <r>     5.5708     0.0000    80.0000 </r>
       <r>     5.6710     0.0000    80.0000 </r>
       <r>     5.7712     0.0000    80.0000 </r>
       <r>     5.8713     0.0161    80.0003 </r>
       <r>     5.9715     0.1739    80.0075 </r>
       <r>     6.0716     0.5886    80.0436 </r>
       <r>     6.1718     1.3911    80.1388 </r>
       <r>     6.2719     2.3173    80.3270 </r>
       <r>     6.3721     3.1679    80.6037 </r>
       <r>     6.4722     3.6317    80.9451 </r>
       <r>     6.5724     3.8354    81.3200 </r>
       <r>     6.6726     4.1492    81.7200 </r>
       <r>     6.7727     4.6235    82.1552 </r>
       <r>     6.8729     4.9764    82.6533 </r>
       <r>     6.9730     5.2488    83.1630 </r>
       <r>     7.0732     5.1849    83.6899 </r>
       <r>     7.1733     5.0637    84.2010 </r>
       <r>     7.2735     5.3448    84.7174 </r>
       <r>     7.3737     5.6907    85.2712 </r>
       <r>     7.4738     5.5923    85.8402 </r>
       <r>     7.5740     5.0296    86.3719 </r>
       <r>     7.6741     4.3853    86.8401 </r>
       <r>     7.7743     4.5805    87.2843 </r>
       <r>     7.8744     5.5498    87.7800 </r>
       <r>     7.9746     6.7376    88.4174 </r>
       <r>     8.0748     7.4654    89.1241 </r>
       <r>     8.1749     7.8759    89.8968 </r>
       <r>     8.2751     7.5223    90.6916 </r>
       <r>     8.3752     6.3841    91.3871 </r>
       <r>     8.4754     4.7269    91.9296 </r>
       <r>     8.5755     4.1597    92.3647 </r>
       <r>     8.6757     4.7849    92.7913 </r>
       <r>     8.7758     4.7926    93.2778 </r>
       <r>     8.8760     3.8384    93.7121 </r>
       <r>     8.9762     3.5565    94.0794 </r>
       <r>     9.0763     3.2669    94.4242 </r>
       <r>     9.1765     3.2561    94.7398 </r>
       <r>     9.2766     2.2327    95.0145 </r>
       <r>     9.3768     2.0612    95.2278 </r>
       <r>     9.4769     2.0362    95.4323 </r>
       <r>     9.5771     2.0042    95.6365 </r>
       <r>     9.6773     1.5669    95.8205 </r>
       <r>     9.7774     0.9216    95.9443 </r>
       <r>     9.8776     0.0284    96.0000 </r>
       <r>     9.9777     0.0000    96.0000 </r>
       <r>    10.0779     0.0000    96.0000 </r>
       <r>    10.1780     0.0000    96.0000 </r>
       <r>    10.2782     0.0000    96.0000 </r>
       <r>    10.3783     0.0000    96.0000 </r>
       <r>    10.4785     0.0000    96.0000 </r>
       <r>    10.5787     0.0000    96.0000 </r>
       <r>    10.6788     0.0000    96.0000 </r>
       <r>    10.7790     0.0000    96.0000 </r>
       <r>    10.8791     0.0000    96.0000 </r>
       <r>    10.9793     0.0000    96.0000 </r>
       <r>    11.0794     0.0000    96.0000 </r>
       <r>    11.1796     0.0000    96.0000 </r>
       <r>    11.2798     0.0000    96.0000 </r>
       <r>    11.3799     0.0000    96.0000 </r>
       <r>    11.4801     0.0000    96.0000 </r>
       <r>    11.5802     0.0000    96.0000 </r>
       <r>    11.6804     0.0000    96.0000 </r>
       <r>    11.7805     0.0000    96.0000 </r>
       <r>    11.8807     0.0000    96.0000 </r>
      </set>
     </set>
    </array>
   </total>
  </dos>
 </calculation>
 <structure name="finalpos" >
  <crystal>
   <varray name="basis" >
    <v>       4.16842225       0.00000000       0.00000000 </v>
    <v>       0.00000000       4.53967086       0.00000000 </v>
    <v>       0.00000000       0.00000000      11.56850013 </v>
   </varray>
   <i name="volume">    218.91379385 </i>
   <varray name="rec_basis" >
    <v>       0.23989892      -0.00000000       0.00000000 </v>
    <v>       0.00000000       0.22028029       0.00000000 </v>
    <v>      -0.00000000      -0.00000000       0.08644163 </v>
   </varray>
  </crystal>
  <varray name="positions" >
   <v>       0.25000000       0.11238621       0.11664596 </v>
   <v>       0.75000000       0.88761379       0.88335404 </v>
   <v>       0.75000000       0.61238621       0.38335404 </v>
   <v>       0.25000000       0.38761379       0.61664596 </v>
   <v>       0.75000000       0.51916418       0.14510650 </v>
   <v>       0.25000000       0.48083582       0.85489350 </v>
   <v>       0.25000000       0.01916418       0.35489350 </v>
   <v>       0.75000000       0.98083582       0.64510650 </v>
  </varray>
 </structure>
</modeling>
