 vasp.5.4.4.18Apr17-6-g9f103f2a35 (build Mar 20 2018 18:07:30) complex           
 executed on             LinuxGNU date 2020.07.12  16:46:34
 running on    8 total cores
 distrk:  each k-point on    8 cores,    1 groups
 distr:  one band on NCORES_PER_BAND=   2 cores,    4 groups


--------------------------------------------------------------------------------------------------------


 INCAR:
 POTCAR:    PAW_PBE Bi 08Apr2002                  
 POTCAR:    PAW_PBE Te 08Apr2002                  
 POTCAR:    PAW_PBE Bi 08Apr2002                  
   VRHFIN =Bi:                                                                  
   LEXCH  = PE                                                                  
   EATOM  =   150.8133 eV,   11.0845 Ry                                         
                                                                                
   TITEL  = PAW_PBE Bi 08Apr2002                                                
   LULTRA =        F    use ultrasoft PP ?                                      
   IUNSCR =        1    unscreen: 0-lin 1-nonlin 2-no                           
   RPACOR =    2.200    partial core radius                                     
   POMASS =  208.980; ZVAL   =    5.000    mass and valenz                      
   RCORE  =    3.000    outmost cutoff radius                                   
   RWIGS  =    3.090; RWIGS  =    1.635    wigner-seitz radius (au A)           
   ENMAX  =  105.037; ENMIN  =   78.777 eV                                      
   ICORE  =        3    local potential                                         
   LCOR   =        T    correct aug charges                                     
   LPAW   =        T    paw PP                                                  
   EAUG   =  265.427                                                            
   DEXC   =    0.000                                                            
   RMAX   =    3.067    core radius for proj-oper                               
   RAUG   =    1.300    factor for augmentation sphere                          
   RDEP   =    3.012    radius for radial grids                                 
   RDEPT  =    2.604    core radius for aug-charge                              
                                                                                
   Atomic configuration                                                         
   17 entries                                                                   
     n  l   j            E        occ.                                          
     1  0  0.50    -90639.6582   2.0000                                         
     2  0  0.50    -16282.4667   2.0000                                         
     2  1  1.50    -13922.8287   6.0000                                         
     3  0  0.50     -3930.4763   2.0000                                         
     3  1  1.50     -3256.7013   6.0000                                         
     3  2  2.50     -2581.6169  10.0000                                         
     4  0  0.50      -902.2614   2.0000                                         
     4  1  1.50      -681.5915   6.0000                                         
     4  2  2.50      -429.8249  10.0000                                         
     4  3  3.50      -152.6004  14.0000                                         
     5  0  0.50      -157.7156   2.0000                                         
     5  1  1.50       -95.8054   6.0000                                         
     5  2  2.50       -27.0806  10.0000                                         
     6  0  0.50       -14.4732   2.0000                                         
     6  1  1.50        -4.5702   3.0000                                         
     6  2  2.50        -2.7212   0.0000                                         
     5  3  2.50        -2.7212   0.0000                                         
   Description                                                                  
     l       E           TYP  RCUT    TYP  RCUT                                 
     0    -14.4732299     23  3.000                                             
     0    -12.2452434     23  3.000                                             
     1     -4.5701666     23  3.000                                             
     1    -13.6058260     23  3.000                                             
     2     -2.7211652     23  3.000                                             
     3     -1.3605826      7  3.000                                             
  local pseudopotential read in
  partial core-charges read in
  partial kinetic energy density read in
  kinetic energy density of atom read in
  atomic valenz-charges read in
  non local Contribution for L=           0  read in
    real space projection operators read in
  non local Contribution for L=           0  read in
    real space projection operators read in
  non local Contribution for L=           1  read in
    real space projection operators read in
  non local Contribution for L=           1  read in
    real space projection operators read in
  non local Contribution for L=           2  read in
    real space projection operators read in
    PAW grid and wavefunctions read in

   number of l-projection  operators is LMAX  =           5
   number of lm-projection operators is LMMAX =          13

 POTCAR:    PAW_PBE Te 08Apr2002                  
   VRHFIN =Te: s2p4                                                             
   LEXCH  = PE                                                                  
   EATOM  =   223.2721 eV,   16.4100 Ry                                         
                                                                                
   TITEL  = PAW_PBE Te 08Apr2002                                                
   LULTRA =        F    use ultrasoft PP ?                                      
   IUNSCR =        1    unscreen: 0-lin 1-nonlin 2-no                           
   RPACOR =    2.200    partial core radius                                     
   POMASS =  127.600; ZVAL   =    6.000    mass and valenz                      
   RCORE  =    2.300    outmost cutoff radius                                   
   RWIGS  =    2.900; RWIGS  =    1.535    wigner-seitz radius (au A)           
   ENMAX  =  174.982; ENMIN  =  131.236 eV                                      
   ICORE  =        3    local potential                                         
   LCOR   =        T    correct aug charges                                     
   LPAW   =        T    paw PP                                                  
   EAUG   =  368.792                                                            
   DEXC   =    0.000                                                            
   RMAX   =    2.345    core radius for proj-oper                               
   RAUG   =    1.300    factor for augmentation sphere                          
   RDEP   =    2.397    radius for radial grids                                 
   RDEPT  =    2.174    core radius for aug-charge                              
                                                                                
   Atomic configuration                                                         
   13 entries                                                                   
     n  l   j            E        occ.                                          
     1  0  0.50    -31621.2075   2.0000                                         
     2  0  0.50     -4848.7941   2.0000                                         
     2  1  1.50     -4352.1960   6.0000                                         
     3  0  0.50      -964.9612   2.0000                                         
     3  1  1.50      -803.6179   6.0000                                         
     3  2  2.50      -559.8710  10.0000                                         
     4  0  0.50      -164.3522   2.0000                                         
     4  1  1.50      -114.3756   6.0000                                         
     4  2  2.50       -41.6483  10.0000                                         
     5  0  0.50       -15.1072   2.0000                                         
     5  1  0.50        -5.9526   4.0000                                         
     5  2  1.50        -5.4423   0.0000                                         
     4  3  2.50        -5.4423   0.0000                                         
   Description                                                                  
     l       E           TYP  RCUT    TYP  RCUT                                 
     0    -15.1072389     23  2.300                                             
     0    -16.4678215     23  2.300                                             
     1     -5.9526306     23  2.300                                             
     1     -2.4873968     23  2.300                                             
     2     -5.4423304     23  2.300                                             
     3     -1.3605826     23  2.300                                             
  local pseudopotential read in
  partial core-charges read in
  partial kinetic energy density read in
  atomic valenz-charges read in
  non local Contribution for L=           0  read in
    real space projection operators read in
  non local Contribution for L=           0  read in
    real space projection operators read in
  non local Contribution for L=           1  read in
    real space projection operators read in
  non local Contribution for L=           1  read in
    real space projection operators read in
  non local Contribution for L=           2  read in
    real space projection operators read in
    PAW grid and wavefunctions read in

   number of l-projection  operators is LMAX  =           5
   number of lm-projection operators is LMMAX =          13

 WARNING: PSMAXN for non-local potential too small
          PSMAXN should be >   12.549083372950625       NTYP=           1
  PAW_PBE Bi 08Apr2002                  :
 energy of atom  1       EATOM= -150.8133
 kinetic energy error for atom=    0.0000 (will be added to EATOM!!)
  PAW_PBE Te 08Apr2002                  :
 energy of atom  2       EATOM= -223.2721
 kinetic energy error for atom=    0.0004 (will be added to EATOM!!)


 POSCAR: Bi2 Te3                                 
  positions in direct lattice
  No initial velocities read in
 exchange correlation table for  LEXCH =        8
   RHO(1)=    0.500       N(1)  =     2000
   RHO(2)=  100.500       N(2)  =     4000



--------------------------------------------------------------------------------------------------------


 ion  position               nearest neighbor table
   1  0.400  0.400  0.400-   5 3.08   5 3.08   5 3.08   3 3.27   3 3.27   3 3.27
   2  0.600  0.600  0.600-   4 3.08   4 3.08   4 3.08   3 3.27   3 3.27   3 3.27
   3  0.000  0.000  0.000-   2 3.27   2 3.27   1 3.27   1 3.27   2 3.27   1 3.27
   4  0.211  0.211  0.211-   2 3.08   2 3.08   2 3.08
   5  0.789  0.789  0.789-   1 3.08   1 3.08   1 3.08


IMPORTANT INFORMATION: All symmetrisations will be switched off!
NOSYMM: (Re-)initialisation of all symmetry stuff for point group C_1.



 KPOINTS: k-points along high symmetry lines      
  k-points in reciprocal lattice
Space group operators:
 irot       det(A)        alpha          n_x          n_y          n_z        tau_x        tau_y        tau_z
    1     1.000000     0.000000     1.000000     0.000000     0.000000     0.000000     0.000000     0.000000


--------------------------------------------------------------------------------------------------------




 Dimension of arrays:
   k-points           NKPTS =    201   k-points in BZ     NKDIM =    201   number of bands    NBANDS=     88
   number of dos      NEDOS =    301   number of ions     NIONS =      5
   non local maximal  LDIM  =      5   non local SUM 2l+1 LMDIM =     13
   total plane-waves  NPLWV = 592704
   max r-space proj   IRMAX =      1   max aug-charges    IRDMAX= ******
   dimension x,y,z NGX =    84 NGY =   84 NGZ =   84
   dimension x,y,z NGXF=   168 NGYF=  168 NGZF=  168
   support grid    NGXF=   336 NGYF=  336 NGZF=  336
   ions per type =               2   3
   NGX,Y,Z   is equivalent  to a cutoff of  13.30, 13.30, 13.30 a.u.
   NGXF,Y,Z  is equivalent  to a cutoff of  26.60, 26.60, 26.60 a.u.

 SYSTEM =  BiTe                                    
 POSCAR =  Bi2 Te3                                 

 Startparameter for this run:
   NWRITE =      2    write-flag & timer
   PREC   = accura    normal or accurate (medium, high low for compatibility)
   ISTART =      0    job   : 0-new  1-cont  2-samecut
   ICHARG =     11    charge: 1-file 2-atom 10-const
   ISPIN  =      1    spin polarized calculation?
   LNONCOLLINEAR =      T non collinear calculations
   LSORBIT =      T    spin-orbit coupling
   INIWAV =      1    electr: 0-lowe 1-rand  2-diag
   LASPH  =      F    aspherical Exc in radial PAW
   METAGGA=      F    non-selfconsistent MetaGGA calc.

 Electronic Relaxation 1
   ENCUT  =  600.0 eV  44.10 Ry    6.64 a.u.  20.97 20.97 20.97*2*pi/ulx,y,z
   ENINI  =  600.0     initial cutoff
   ENAUG  =  368.8 eV  augmentation charge cutoff
   NELM   =     60;   NELMIN=  2; NELMDL=  0     # of ELM steps 
   EDIFF  = 0.1E-06   stopping-criterion for ELM
   LREAL  =      F    real-space projection
   NLSPLINE    = F    spline interpolate recip. space projectors
   LCOMPAT=      F    compatible to vasp.4.4
   GGA_COMPAT  = F    GGA compatible to vasp.4.4-vasp.4.6
   LMAXPAW     = -100 max onsite density
   LMAXMIX     =    4 max onsite mixed and CHGCAR
   VOSKOWN=      0    Vosko Wilk Nusair interpolation
   ROPT   =    0.00000   0.00000
 Ionic relaxation
   EDIFFG = -.1E-02   stopping-criterion for IOM
   NSW    =      0    number of steps for IOM
   NBLOCK =      1;   KBLOCK =      1    inner block; outer block 
   IBRION =     -1    ionic relax: 0-MD 1-quasi-New 2-CG
   NFREE  =      0    steps in history (QN), initial steepest desc. (CG)
   ISIF   =      2    stress and relaxation
   IWAVPR =     10    prediction:  0-non 1-charg 2-wave 3-comb
   ISYM   =     -1    0-nonsym 1-usesym 2-fastsym
   LCORR  =      T    Harris-Foulkes like correction to forces

   POTIM  = 0.5000    time-step for ionic-motion
   TEIN   =    0.0    initial temperature
   TEBEG  =    0.0;   TEEND  =   0.0 temperature during run
   SMASS  =  -3.00    Nose mass-parameter (am)
   estimated Nose-frequenzy (Omega)   =  0.10E-29 period in steps =****** mass=  -0.252E-26a.u.
   SCALEE = 1.0000    scale energy and forces
   NPACO  =    256;   APACO  = 16.0  distance and # of slots for P.C.
   PSTRESS=    0.0 pullay stress

  Mass of Ions in am
   POMASS = 208.98127.60
  Ionic Valenz
   ZVAL   =   5.00  6.00
  Atomic Wigner-Seitz radii
   RWIGS  =  -1.00 -1.00
  virtual crystal weights 
   VCA    =   1.00  1.00
   NELECT =      28.0000    total number of electrons
   NUPDOWN=      -1.0000    fix difference up-down

 DOS related values:
   EMIN   =  10.00;   EMAX   =-10.00  energy-range for DOS
   EFERMI =   0.00
   ISMEAR =     0;   SIGMA  =   0.01  broadening in eV -4-tet -1-fermi 0-gaus

 Electronic relaxation 2 (details)
   IALGO  =     58    algorithm
   LDIAG  =      T    sub-space diagonalisation (order eigenvalues)
   LSUBROT=      F    optimize rotation matrix (better conditioning)
   TURBO    =      0    0=normal 1=particle mesh
   IRESTART =      0    0=no restart 2=restart with 2 vectors
   NREBOOT  =      0    no. of reboots
   NMIN     =      0    reboot dimension
   EREF     =   0.00    reference energy to select bands
   IMIX   =      4    mixing-type and parameters
     AMIX     =   0.40;   BMIX     =  1.00
     AMIX_MAG =   1.60;   BMIX_MAG =  1.00
     AMIN     =   0.10
     WC   =   100.;   INIMIX=   1;  MIXPRE=   1;  MAXMIX= -45

 Intra band minimization:
   WEIMIN = 0.0000     energy-eigenvalue tresh-hold
   EBREAK =  0.28E-09  absolut break condition
   DEPER  =   0.30     relativ break condition  

   TIME   =   0.40     timestep for ELM

  volume/ion in A,a.u.               =      34.73       234.39
  Fermi-wavevector in a.u.,A,eV,Ry     =   0.891023  1.683789 10.801960  0.793922
  Thomas-Fermi vector in A             =   2.012789

 Write flags
   LWAVE        =      F    write WAVECAR
   LDOWNSAMPLE  =      F    k-point downsampling of WAVECAR
   LCHARG       =      F    write CHGCAR
   LVTOT        =      F    write LOCPOT, total local potential
   LVHAR        =      F    write LOCPOT, Hartree potential only
   LELF         =      F    write electronic localiz. function (ELF)
   LORBIT       =      0    0 simple, 1 ext, 2 COOP (PROOUT), +10 PAW based schemes


 Dipole corrections
   LMONO  =      F    monopole corrections only (constant potential shift)
   LDIPOL =      F    correct potential (dipole corrections)
   IDIPOL =      0    1-x, 2-y, 3-z, 4-all directions 
   EPSILON=  1.0000000 bulk dielectric constant

 Exchange correlation treatment:
   GGA     =    --    GGA type
   LEXCH   =     8    internal setting for exchange type
   VOSKOWN=      0    Vosko Wilk Nusair interpolation
   LHFCALC =     F    Hartree Fock is set to
   LHFONE  =     F    Hartree Fock one center treatment
   AEXX    =    0.0000 exact exchange contribution

 Linear response parameters
   LEPSILON=     F    determine dielectric tensor
   LRPA    =     F    only Hartree local field effects (RPA)
   LNABLA  =     F    use nabla operator in PAW spheres
   LVEL    =     F    velocity operator in full k-point grid
   LINTERFAST=   F  fast interpolation
   KINTER  =     0    interpolate to denser k-point grid
   CSHIFT  =0.1000    complex shift for real part using Kramers Kronig
   OMEGAMAX=  -1.0    maximum frequency
   DEG_THRESHOLD= 0.2000000E-02 threshold for treating states as degnerate
   RTIME   =   -0.100 relaxation time in fs
  (WPLASMAI=    0.000 imaginary part of plasma frequency in eV, 0.658/RTIME)
   DFIELD  = 0.0000000 0.0000000 0.0000000 field for delta impulse in time

 Orbital magnetization related:
   ORBITALMAG=     F  switch on orbital magnetization
   LCHIMAG   =     F  perturbation theory with respect to B field
   DQ        =  0.001000  dq finite difference perturbation B field
   LLRAUG    =     F  two centre corrections for induced B field



--------------------------------------------------------------------------------------------------------


 Static calculation
 charge density and potential remain constant during run
 non collinear spin polarized calculation
 Conjugate gradient for all bands (Freysoldt, et al. PRB 79, 241103 (2009))
 preconditioned conjugated gradient   charged. constant during bandupdate  
 perform sub-space diagonalisation
    before iterative eigenvector-optimisation
 no mixing
 using additional bands           74
 reciprocal scheme for non local part
 use partial core corrections
 calculate Harris-corrections to forces   (improved forces if not selfconsistent)
 use gradient corrections 
 WARNING: stress and forces are not correct
  (second derivative of E(xc) not defined)
 use of overlap-Matrix (Vanderbilt PP)
 Gauss-broadening in eV      SIGMA  =   0.01


--------------------------------------------------------------------------------------------------------


  energy-cutoff  :      600.00
  volume of cell :      173.67
      direct lattice vectors                 reciprocal lattice vectors
    10.263426447 -2.218816050  0.000000000     0.048716674 -0.225345404 -0.125000141
    10.263426447  2.218816050  0.000000000     0.048716674  0.225345404 -0.125000141
     9.783747980  0.000000000  3.813048985    -0.000000000  0.000000000  0.262257318

  length of vectors
    10.500526991 10.500526991 10.500526991     0.262257318  0.262257318  0.262257318



 k-points in units of 2pi/SCALE and weight: k-points along high symmetry lines      
   0.05657750 -0.10908430 -0.05635883       0.005
   0.05516306 -0.10635717 -0.05494985       0.005
   0.05374867 -0.10363027 -0.05354099       0.005
   0.05233423 -0.10090314 -0.05213201       0.005
   0.05091979 -0.09817601 -0.05072302       0.005
   0.04950535 -0.09544888 -0.04931404       0.005
   0.04809091 -0.09272175 -0.04790506       0.005
   0.04667647 -0.08999462 -0.04649607       0.005
   0.04526203 -0.08726749 -0.04508709       0.005
   0.04384759 -0.08454036 -0.04367811       0.005
   0.04243315 -0.08181323 -0.04226912       0.005
   0.04101871 -0.07908610 -0.04086014       0.005
   0.03960427 -0.07635897 -0.03945115       0.005
   0.03818983 -0.07363184 -0.03804217       0.005
   0.03677539 -0.07090471 -0.03663319       0.005
   0.03536095 -0.06817758 -0.03522420       0.005
   0.03394651 -0.06545045 -0.03381522       0.005
   0.03253212 -0.06272354 -0.03240636       0.005
   0.03111768 -0.05999641 -0.03099738       0.005
   0.02970324 -0.05726928 -0.02958839       0.005
   0.02828880 -0.05454215 -0.02817941       0.005
   0.02687436 -0.05181502 -0.02677043       0.005
   0.02545992 -0.04908789 -0.02536144       0.005
   0.02404548 -0.04636076 -0.02395246       0.005
   0.02263104 -0.04363363 -0.02254348       0.005
   0.02121655 -0.04090673 -0.02113463       0.005
   0.01980211 -0.03817960 -0.01972565       0.005
   0.01838767 -0.03545247 -0.01831666       0.005
   0.01697323 -0.03272534 -0.01690768       0.005
   0.01555879 -0.02999821 -0.01549870       0.005
   0.01414435 -0.02727108 -0.01408971       0.005
   0.01272991 -0.02454395 -0.01268073       0.005
   0.01131547 -0.02181682 -0.01127174       0.005
   0.00990108 -0.01908991 -0.00986289       0.005
   0.00848664 -0.01636278 -0.00845390       0.005
   0.00707220 -0.01363565 -0.00704492       0.005
   0.00565776 -0.01090852 -0.00563593       0.005
   0.00424332 -0.00818139 -0.00422695       0.005
   0.00282888 -0.00545426 -0.00281797       0.005
   0.00141444 -0.00272713 -0.00140898       0.005
   0.00000000  0.00000000  0.00000000       0.005
   0.00121792  0.00000000  0.00015321       0.005
   0.00243583  0.00000000  0.00030643       0.005
   0.00365375  0.00000000  0.00045964       0.005
   0.00487167  0.00000000  0.00061285       0.005
   0.00608958  0.00000000  0.00076606       0.005
   0.00730750  0.00000000  0.00091928       0.005
   0.00852542  0.00000000  0.00107249       0.005
   0.00974333  0.00000000  0.00122570       0.005
   0.01096125  0.00000000  0.00137892       0.005
   0.01217917  0.00000000  0.00153213       0.005
   0.01339709  0.00000000  0.00168534       0.005
   0.01461500  0.00000000  0.00183856       0.005
   0.01583292  0.00000000  0.00199177       0.005
   0.01705084  0.00000000  0.00214498       0.005
   0.01826875  0.00000000  0.00229819       0.005
   0.01948667  0.00000000  0.00245141       0.005
   0.02070459  0.00000000  0.00260462       0.005
   0.02192250  0.00000000  0.00275783       0.005
   0.02314042  0.00000000  0.00291105       0.005
   0.02435834  0.00000000  0.00306426       0.005
   0.02557625  0.00000000  0.00321747       0.005
   0.02679417  0.00000000  0.00337068       0.005
   0.02801209  0.00000000  0.00352390       0.005
   0.02923000  0.00000000  0.00367711       0.005
   0.03044792  0.00000000  0.00383032       0.005
   0.03166584  0.00000000  0.00398354       0.005
   0.03288375  0.00000000  0.00413675       0.005
   0.03410167  0.00000000  0.00428996       0.005
   0.03531959  0.00000000  0.00444318       0.005
   0.03653751  0.00000000  0.00459639       0.005
   0.03775542  0.00000000  0.00474960       0.005
   0.03897334  0.00000000  0.00490281       0.005
   0.04019126  0.00000000  0.00505603       0.005
   0.04140917  0.00000000  0.00520924       0.005
   0.04262709  0.00000000  0.00536245       0.005
   0.04384501  0.00000000  0.00551567       0.005
   0.04506292  0.00000000  0.00566888       0.005
   0.04628084  0.00000000  0.00582209       0.005
   0.04749876  0.00000000  0.00597531       0.005
   0.04871667  0.00000000  0.00612852       0.005
   0.04871667  0.00000000  0.00285030       0.005
   0.04871667  0.00000000 -0.00042791       0.005
   0.04871667  0.00000000 -0.00370613       0.005
   0.04871667  0.00000000 -0.00698435       0.005
   0.04871667  0.00000000 -0.01026256       0.005
   0.04871667  0.00000000 -0.01354078       0.005
   0.04871667  0.00000000 -0.01681900       0.005
   0.04871667  0.00000000 -0.02009721       0.005
   0.04871667  0.00000000 -0.02337543       0.005
   0.04871667  0.00000000 -0.02665365       0.005
   0.04871667  0.00000000 -0.02993186       0.005
   0.04871667  0.00000000 -0.03321008       0.005
   0.04871667  0.00000000 -0.03648830       0.005
   0.04871667  0.00000000 -0.03976651       0.005
   0.04871667  0.00000000 -0.04304473       0.005
   0.04871667  0.00000000 -0.04632295       0.005
   0.04871667  0.00000000 -0.04960116       0.005
   0.04871667  0.00000000 -0.05287938       0.005
   0.04871667  0.00000000 -0.05615759       0.005
   0.04871667  0.00000000 -0.05943581       0.005
   0.04871667  0.00000000 -0.06271403       0.005
   0.04871667  0.00000000 -0.06599224       0.005
   0.04871667  0.00000000 -0.06927046       0.005
   0.04871667  0.00000000 -0.07254868       0.005
   0.04871667  0.00000000 -0.07582689       0.005
   0.04871667  0.00000000 -0.07910511       0.005
   0.04871667  0.00000000 -0.08238333       0.005
   0.04871667  0.00000000 -0.08566154       0.005
   0.04871667  0.00000000 -0.08893976       0.005
   0.04871667  0.00000000 -0.09221798       0.005
   0.04871667  0.00000000 -0.09549619       0.005
   0.04871667  0.00000000 -0.09877441       0.005
   0.04871667  0.00000000 -0.10205263       0.005
   0.04871667  0.00000000 -0.10533084       0.005
   0.04871667  0.00000000 -0.10860906       0.005
   0.04871667  0.00000000 -0.11188728       0.005
   0.04871667  0.00000000 -0.11516549       0.005
   0.04871667  0.00000000 -0.11844371       0.005
   0.04871667  0.00000000 -0.12172192       0.005
   0.04871667  0.00000000 -0.12500014       0.005
   0.04749876  0.00000000 -0.12187514       0.005
   0.04628084  0.00000000 -0.11875013       0.005
   0.04506292  0.00000000 -0.11562513       0.005
   0.04384501  0.00000000 -0.11250013       0.005
   0.04262709  0.00000000 -0.10937512       0.005
   0.04140917  0.00000000 -0.10625012       0.005
   0.04019126  0.00000000 -0.10312512       0.005
   0.03897334  0.00000000 -0.10000011       0.005
   0.03775542  0.00000000 -0.09687511       0.005
   0.03653751  0.00000000 -0.09375011       0.005
   0.03531959  0.00000000 -0.09062510       0.005
   0.03410167  0.00000000 -0.08750010       0.005
   0.03288375  0.00000000 -0.08437510       0.005
   0.03166584  0.00000000 -0.08125009       0.005
   0.03044792  0.00000000 -0.07812509       0.005
   0.02923000  0.00000000 -0.07500008       0.005
   0.02801209  0.00000000 -0.07187508       0.005
   0.02679417  0.00000000 -0.06875008       0.005
   0.02557625  0.00000000 -0.06562507       0.005
   0.02435834  0.00000000 -0.06250007       0.005
   0.02314042  0.00000000 -0.05937507       0.005
   0.02192250  0.00000000 -0.05625006       0.005
   0.02070459  0.00000000 -0.05312506       0.005
   0.01948667  0.00000000 -0.05000006       0.005
   0.01826875  0.00000000 -0.04687505       0.005
   0.01705084  0.00000000 -0.04375005       0.005
   0.01583292  0.00000000 -0.04062505       0.005
   0.01461500  0.00000000 -0.03750004       0.005
   0.01339709  0.00000000 -0.03437504       0.005
   0.01217917  0.00000000 -0.03125004       0.005
   0.01096125  0.00000000 -0.02812503       0.005
   0.00974333  0.00000000 -0.02500003       0.005
   0.00852542  0.00000000 -0.02187502       0.005
   0.00730750  0.00000000 -0.01875002       0.005
   0.00608958  0.00000000 -0.01562502       0.005
   0.00487167  0.00000000 -0.01250001       0.005
   0.00365375  0.00000000 -0.00937501       0.005
   0.00243583  0.00000000 -0.00625001       0.005
   0.00121792  0.00000000 -0.00312500       0.005
   0.00000000  0.00000000  0.00000000       0.005
   0.00131618 -0.00136357 -0.00062789       0.005
   0.00263236 -0.00272713 -0.00125577       0.005
   0.00394854 -0.00409070 -0.00188366       0.005
   0.00526471 -0.00545426 -0.00251154       0.005
   0.00658089 -0.00681783 -0.00313943       0.005
   0.00789707 -0.00818139 -0.00376731       0.005
   0.00921325 -0.00954496 -0.00439520       0.005
   0.01052943 -0.01090852 -0.00502308       0.005
   0.01184561 -0.01227209 -0.00565097       0.005
   0.01316178 -0.01363565 -0.00627885       0.005
   0.01447796 -0.01499922 -0.00690674       0.005
   0.01579414 -0.01636278 -0.00753462       0.005
   0.01711032 -0.01772635 -0.00816251       0.005
   0.01842650 -0.01908991 -0.00879039       0.005
   0.01974268 -0.02045348 -0.00941828       0.005
   0.02105881 -0.02181682 -0.01004604       0.005
   0.02237498 -0.02318038 -0.01067393       0.005
   0.02369116 -0.02454395 -0.01130181       0.005
   0.02500734 -0.02590751 -0.01192970       0.005
   0.02632352 -0.02727108 -0.01255758       0.005
   0.02763970 -0.02863464 -0.01318547       0.005
   0.02895588 -0.02999821 -0.01381335       0.005
   0.03027205 -0.03136177 -0.01444124       0.005
   0.03158823 -0.03272534 -0.01506912       0.005
   0.03290441 -0.03408890 -0.01569701       0.005
   0.03422059 -0.03545247 -0.01632489       0.005
   0.03553677 -0.03681603 -0.01695278       0.005
   0.03685295 -0.03817960 -0.01758066       0.005
   0.03816912 -0.03954316 -0.01820855       0.005
   0.03948530 -0.04090673 -0.01883644       0.005
   0.04080153 -0.04227007 -0.01946418       0.005
   0.04211771 -0.04363363 -0.02009207       0.005
   0.04343389 -0.04499720 -0.02071995       0.005
   0.04475006 -0.04636076 -0.02134784       0.005
   0.04606624 -0.04772433 -0.02197572       0.005
   0.04738242 -0.04908789 -0.02260361       0.005
   0.04869860 -0.05045146 -0.02323150       0.005
   0.05001478 -0.05181502 -0.02385938       0.005
   0.05133096 -0.05317859 -0.02448727       0.005
   0.05264714 -0.05454215 -0.02511515       0.005

 k-points in reciprocal lattice and weights: k-points along high symmetry lines      
   0.82271700  0.33864100  0.33864100       0.005
   0.80214900  0.33017500  0.33017500       0.005
   0.78158200  0.32170900  0.32170900       0.005
   0.76101400  0.31324300  0.31324300       0.005
   0.74044600  0.30477700  0.30477700       0.005
   0.71987800  0.29631100  0.29631100       0.005
   0.69931000  0.28784500  0.28784500       0.005
   0.67874200  0.27937900  0.27937900       0.005
   0.65817400  0.27091300  0.27091300       0.005
   0.63760600  0.26244700  0.26244700       0.005
   0.61703800  0.25398100  0.25398100       0.005
   0.59647000  0.24551500  0.24551500       0.005
   0.57590200  0.23704900  0.23704900       0.005
   0.55533400  0.22858300  0.22858300       0.005
   0.53476600  0.22011700  0.22011700       0.005
   0.51419800  0.21165100  0.21165100       0.005
   0.49363000  0.20318500  0.20318500       0.005
   0.47306300  0.19471900  0.19471900       0.005
   0.45249500  0.18625300  0.18625300       0.005
   0.43192700  0.17778700  0.17778700       0.005
   0.41135900  0.16932100  0.16932100       0.005
   0.39079100  0.16085500  0.16085500       0.005
   0.37022300  0.15238900  0.15238900       0.005
   0.34965500  0.14392300  0.14392300       0.005
   0.32908700  0.13545700  0.13545700       0.005
   0.30851900  0.12699000  0.12699000       0.005
   0.28795100  0.11852400  0.11852400       0.005
   0.26738300  0.11005800  0.11005800       0.005
   0.24681500  0.10159200  0.10159200       0.005
   0.22624700  0.09312600  0.09312600       0.005
   0.20567900  0.08466000  0.08466000       0.005
   0.18511100  0.07619400  0.07619400       0.005
   0.16454300  0.06772800  0.06772800       0.005
   0.14397600  0.05926200  0.05926200       0.005
   0.12340800  0.05079600  0.05079600       0.005
   0.10284000  0.04233000  0.04233000       0.005
   0.08227200  0.03386400  0.03386400       0.005
   0.06170400  0.02539800  0.02539800       0.005
   0.04113600  0.01693200  0.01693200       0.005
   0.02056800  0.00846600  0.00846600       0.005
  -0.00000000  0.00000000  0.00000000       0.005
   0.01250000  0.01250000  0.01250000       0.005
   0.02500000  0.02500000  0.02500000       0.005
   0.03750000  0.03750000  0.03750000       0.005
   0.05000000  0.05000000  0.05000000       0.005
   0.06250000  0.06250000  0.06250000       0.005
   0.07500000  0.07500000  0.07500000       0.005
   0.08750000  0.08750000  0.08750000       0.005
   0.10000000  0.10000000  0.10000000       0.005
   0.11250000  0.11250000  0.11250000       0.005
   0.12500000  0.12500000  0.12500000       0.005
   0.13750000  0.13750000  0.13750000       0.005
   0.15000000  0.15000000  0.15000000       0.005
   0.16250000  0.16250000  0.16250000       0.005
   0.17500000  0.17500000  0.17500000       0.005
   0.18750000  0.18750000  0.18750000       0.005
   0.20000000  0.20000000  0.20000000       0.005
   0.21250000  0.21250000  0.21250000       0.005
   0.22500000  0.22500000  0.22500000       0.005
   0.23750000  0.23750000  0.23750000       0.005
   0.25000000  0.25000000  0.25000000       0.005
   0.26250000  0.26250000  0.26250000       0.005
   0.27500000  0.27500000  0.27500000       0.005
   0.28750000  0.28750000  0.28750000       0.005
   0.30000000  0.30000000  0.30000000       0.005
   0.31250000  0.31250000  0.31250000       0.005
   0.32500000  0.32500000  0.32500000       0.005
   0.33750000  0.33750000  0.33750000       0.005
   0.35000000  0.35000000  0.35000000       0.005
   0.36250000  0.36250000  0.36250000       0.005
   0.37500000  0.37500000  0.37500000       0.005
   0.38750000  0.38750000  0.38750000       0.005
   0.40000000  0.40000000  0.40000000       0.005
   0.41250000  0.41250000  0.41250000       0.005
   0.42500000  0.42500000  0.42500000       0.005
   0.43750000  0.43750000  0.43750000       0.005
   0.45000000  0.45000000  0.45000000       0.005
   0.46250000  0.46250000  0.46250000       0.005
   0.47500000  0.47500000  0.47500000       0.005
   0.48750000  0.48750000  0.48750000       0.005
   0.50000000  0.50000000  0.50000000       0.005
   0.50000000  0.50000000  0.48750000       0.005
   0.50000000  0.50000000  0.47500000       0.005
   0.50000000  0.50000000  0.46250000       0.005
   0.50000000  0.50000000  0.45000000       0.005
   0.50000000  0.50000000  0.43750000       0.005
   0.50000000  0.50000000  0.42500000       0.005
   0.50000000  0.50000000  0.41250000       0.005
   0.50000000  0.50000000  0.40000000       0.005
   0.50000000  0.50000000  0.38750000       0.005
   0.50000000  0.50000000  0.37500000       0.005
   0.50000000  0.50000000  0.36250000       0.005
   0.50000000  0.50000000  0.35000000       0.005
   0.50000000  0.50000000  0.33750000       0.005
   0.50000000  0.50000000  0.32500000       0.005
   0.50000000  0.50000000  0.31250000       0.005
   0.50000000  0.50000000  0.30000000       0.005
   0.50000000  0.50000000  0.28750000       0.005
   0.50000000  0.50000000  0.27500000       0.005
   0.50000000  0.50000000  0.26250000       0.005
   0.50000000  0.50000000  0.25000000       0.005
   0.50000000  0.50000000  0.23750000       0.005
   0.50000000  0.50000000  0.22500000       0.005
   0.50000000  0.50000000  0.21250000       0.005
   0.50000000  0.50000000  0.20000000       0.005
   0.50000000  0.50000000  0.18750000       0.005
   0.50000000  0.50000000  0.17500000       0.005
   0.50000000  0.50000000  0.16250000       0.005
   0.50000000  0.50000000  0.15000000       0.005
   0.50000000  0.50000000  0.13750000       0.005
   0.50000000  0.50000000  0.12500000       0.005
   0.50000000  0.50000000  0.11250000       0.005
   0.50000000  0.50000000  0.10000000       0.005
   0.50000000  0.50000000  0.08750000       0.005
   0.50000000  0.50000000  0.07500000       0.005
   0.50000000  0.50000000  0.06250000       0.005
   0.50000000  0.50000000  0.05000000       0.005
   0.50000000  0.50000000  0.03750000       0.005
   0.50000000  0.50000000  0.02500000       0.005
   0.50000000  0.50000000  0.01250000       0.005
   0.50000000  0.50000000  0.00000000       0.005
   0.48750000  0.48750000  0.00000000       0.005
   0.47500000  0.47500000  0.00000000       0.005
   0.46250000  0.46250000  0.00000000       0.005
   0.45000000  0.45000000  0.00000000       0.005
   0.43750000  0.43750000  0.00000000       0.005
   0.42500000  0.42500000  0.00000000       0.005
   0.41250000  0.41250000  0.00000000       0.005
   0.40000000  0.40000000  0.00000000       0.005
   0.38750000  0.38750000  0.00000000       0.005
   0.37500000  0.37500000  0.00000000       0.005
   0.36250000  0.36250000  0.00000000       0.005
   0.35000000  0.35000000  0.00000000       0.005
   0.33750000  0.33750000  0.00000000       0.005
   0.32500000  0.32500000  0.00000000       0.005
   0.31250000  0.31250000  0.00000000       0.005
   0.30000000  0.30000000  0.00000000       0.005
   0.28750000  0.28750000  0.00000000       0.005
   0.27500000  0.27500000  0.00000000       0.005
   0.26250000  0.26250000  0.00000000       0.005
   0.25000000  0.25000000  0.00000000       0.005
   0.23750000  0.23750000  0.00000000       0.005
   0.22500000  0.22500000  0.00000000       0.005
   0.21250000  0.21250000  0.00000000       0.005
   0.20000000  0.20000000  0.00000000       0.005
   0.18750000  0.18750000  0.00000000       0.005
   0.17500000  0.17500000  0.00000000       0.005
   0.16250000  0.16250000  0.00000000       0.005
   0.15000000  0.15000000  0.00000000       0.005
   0.13750000  0.13750000  0.00000000       0.005
   0.12500000  0.12500000  0.00000000       0.005
   0.11250000  0.11250000  0.00000000       0.005
   0.10000000  0.10000000  0.00000000       0.005
   0.08750000  0.08750000  0.00000000       0.005
   0.07500000  0.07500000  0.00000000       0.005
   0.06250000  0.06250000  0.00000000       0.005
   0.05000000  0.05000000  0.00000000       0.005
   0.03750000  0.03750000  0.00000000       0.005
   0.02500000  0.02500000  0.00000000       0.005
   0.01250000  0.01250000  0.00000000       0.005
  -0.00000000  0.00000000  0.00000000       0.005
   0.01653400  0.01048300  0.01048300       0.005
   0.03306800  0.02096600  0.02096600       0.005
   0.04960200  0.03144900  0.03144900       0.005
   0.06613600  0.04193200  0.04193200       0.005
   0.08267000  0.05241500  0.05241500       0.005
   0.09920400  0.06289800  0.06289800       0.005
   0.11573800  0.07338100  0.07338100       0.005
   0.13227200  0.08386400  0.08386400       0.005
   0.14880600  0.09434700  0.09434700       0.005
   0.16534000  0.10483000  0.10483000       0.005
   0.18187400  0.11531300  0.11531300       0.005
   0.19840800  0.12579600  0.12579600       0.005
   0.21494200  0.13627900  0.13627900       0.005
   0.23147600  0.14676200  0.14676200       0.005
   0.24801000  0.15724500  0.15724500       0.005
   0.26454300  0.16772800  0.16772800       0.005
   0.28107700  0.17821100  0.17821100       0.005
   0.29761100  0.18869400  0.18869400       0.005
   0.31414500  0.19917700  0.19917700       0.005
   0.33067900  0.20966000  0.20966000       0.005
   0.34721300  0.22014300  0.22014300       0.005
   0.36374700  0.23062600  0.23062600       0.005
   0.38028100  0.24110900  0.24110900       0.005
   0.39681500  0.25159200  0.25159200       0.005
   0.41334900  0.26207500  0.26207500       0.005
   0.42988300  0.27255800  0.27255800       0.005
   0.44641700  0.28304100  0.28304100       0.005
   0.46295100  0.29352400  0.29352400       0.005
   0.47948500  0.30400700  0.30400700       0.005
   0.49601900  0.31449000  0.31449000       0.005
   0.51255300  0.32497400  0.32497400       0.005
   0.52908700  0.33545700  0.33545700       0.005
   0.54562100  0.34594000  0.34594000       0.005
   0.56215500  0.35642300  0.35642300       0.005
   0.57868900  0.36690600  0.36690600       0.005
   0.59522300  0.37738900  0.37738900       0.005
   0.61175700  0.38787200  0.38787200       0.005
   0.62829100  0.39835500  0.39835500       0.005
   0.64482500  0.40883800  0.40883800       0.005
   0.66135900  0.41932100  0.41932100       0.005

 position of ions in fractional coordinates (direct lattice) 
   0.39959548  0.39959548  0.39959548
   0.60040452  0.60040452  0.60040452
   0.00000000  0.00000000  0.00000000
   0.21094281  0.21094281  0.21094281
   0.78905719  0.78905719  0.78905719

 position of ions in cartesian coordinates  (Angst):
  12.11197902  0.00000000  1.52367713
  18.19862186  0.00000000  2.28937186
   0.00000000  0.00000000  0.00000000
   6.39380325  0.00000000  0.80433526
  23.91679763  0.00000000  3.00871373

 Euler angles ALPHA=     0.0000000  BETA=     0.0000000

 transformation matrix from SAXIS to cartesian coordinates
 ---------------------------------------------------------
     1.0000000 m_x    -0.0000000 m_y     0.0000000 m_z
     0.0000000 m_x     1.0000000 m_y     0.0000000 m_z
    -0.0000000 m_x     0.0000000 m_y     1.0000000 m_z

 transformation matrix from cartesian coordinates to SAXIS
 ---------------------------------------------------------
     1.0000000 m_x     0.0000000 m_y    -0.0000000 m_z
    -0.0000000 m_x     1.0000000 m_y     0.0000000 m_z
     0.0000000 m_x     0.0000000 m_y     1.0000000 m_z




--------------------------------------------------------------------------------------------------------


 k-point  1 :   0.8227 0.3386 0.3386  plane waves:   11594
 k-point  2 :   0.8021 0.3302 0.3302  plane waves:   11594
 k-point  3 :   0.7816 0.3217 0.3217  plane waves:   11600
 k-point  4 :   0.7610 0.3132 0.3132  plane waves:   11634
 k-point  5 :   0.7404 0.3048 0.3048  plane waves:   11618
 k-point  6 :   0.7199 0.2963 0.2963  plane waves:   11606
 k-point  7 :   0.6993 0.2878 0.2878  plane waves:   11618
 k-point  8 :   0.6787 0.2794 0.2794  plane waves:   11614
 k-point  9 :   0.6582 0.2709 0.2709  plane waves:   11606
 k-point 10 :   0.6376 0.2624 0.2624  plane waves:   11608
 k-point 11 :   0.6170 0.2540 0.2540  plane waves:   11614
 k-point 12 :   0.5965 0.2455 0.2455  plane waves:   11610
 k-point 13 :   0.5759 0.2370 0.2370  plane waves:   11592
 k-point 14 :   0.5553 0.2286 0.2286  plane waves:   11586
 k-point 15 :   0.5348 0.2201 0.2201  plane waves:   11594
 k-point 16 :   0.5142 0.2117 0.2117  plane waves:   11566
 k-point 17 :   0.4936 0.2032 0.2032  plane waves:   11582
 k-point 18 :   0.4731 0.1947 0.1947  plane waves:   11576
 k-point 19 :   0.4525 0.1863 0.1863  plane waves:   11582
 k-point 20 :   0.4319 0.1778 0.1778  plane waves:   11580
 k-point 21 :   0.4114 0.1693 0.1693  plane waves:   11568
 k-point 22 :   0.3908 0.1609 0.1609  plane waves:   11564
 k-point 23 :   0.3702 0.1524 0.1524  plane waves:   11546
 k-point 24 :   0.3497 0.1439 0.1439  plane waves:   11538
 k-point 25 :   0.3291 0.1355 0.1355  plane waves:   11542
 k-point 26 :   0.3085 0.1270 0.1270  plane waves:   11538
 k-point 27 :   0.2880 0.1185 0.1185  plane waves:   11542
 k-point 28 :   0.2674 0.1101 0.1101  plane waves:   11538
 k-point 29 :   0.2468 0.1016 0.1016  plane waves:   11542
 k-point 30 :   0.2262 0.0931 0.0931  plane waves:   11562
 k-point 31 :   0.2057 0.0847 0.0847  plane waves:   11552
 k-point 32 :   0.1851 0.0762 0.0762  plane waves:   11564
 k-point 33 :   0.1645 0.0677 0.0677  plane waves:   11572
 k-point 34 :   0.1440 0.0593 0.0593  plane waves:   11580
 k-point 35 :   0.1234 0.0508 0.0508  plane waves:   11584
 k-point 36 :   0.1028 0.0423 0.0423  plane waves:   11584
 k-point 37 :   0.0823 0.0339 0.0339  plane waves:   11580
 k-point 38 :   0.0617 0.0254 0.0254  plane waves:   11576
 k-point 39 :   0.0411 0.0169 0.0169  plane waves:   11564
 k-point 40 :   0.0206 0.0085 0.0085  plane waves:   11562
 k-point 41 :  -0.0000 0.0000 0.0000  plane waves:   11578
 k-point 42 :   0.0125 0.0125 0.0125  plane waves:   11560
 k-point 43 :   0.0250 0.0250 0.0250  plane waves:   11554
 k-point 44 :   0.0375 0.0375 0.0375  plane waves:   11572
 k-point 45 :   0.0500 0.0500 0.0500  plane waves:   11572
 k-point 46 :   0.0625 0.0625 0.0625  plane waves:   11572
 k-point 47 :   0.0750 0.0750 0.0750  plane waves:   11536
 k-point 48 :   0.0875 0.0875 0.0875  plane waves:   11536
 k-point 49 :   0.1000 0.1000 0.1000  plane waves:   11542
 k-point 50 :   0.1125 0.1125 0.1125  plane waves:   11542
 k-point 51 :   0.1250 0.1250 0.1250  plane waves:   11542
 k-point 52 :   0.1375 0.1375 0.1375  plane waves:   11542
 k-point 53 :   0.1500 0.1500 0.1500  plane waves:   11530
 k-point 54 :   0.1625 0.1625 0.1625  plane waves:   11530
 k-point 55 :   0.1750 0.1750 0.1750  plane waves:   11536
 k-point 56 :   0.1875 0.1875 0.1875  plane waves:   11572
 k-point 57 :   0.2000 0.2000 0.2000  plane waves:   11572
 k-point 58 :   0.2125 0.2125 0.2125  plane waves:   11572
 k-point 59 :   0.2250 0.2250 0.2250  plane waves:   11572
 k-point 60 :   0.2375 0.2375 0.2375  plane waves:   11566
 k-point 61 :   0.2500 0.2500 0.2500  plane waves:   11590
 k-point 62 :   0.2625 0.2625 0.2625  plane waves:   11602
 k-point 63 :   0.2750 0.2750 0.2750  plane waves:   11602
 k-point 64 :   0.2875 0.2875 0.2875  plane waves:   11614
 k-point 65 :   0.3000 0.3000 0.3000  plane waves:   11602
 k-point 66 :   0.3125 0.3125 0.3125  plane waves:   11590
 k-point 67 :   0.3250 0.3250 0.3250  plane waves:   11596
 k-point 68 :   0.3375 0.3375 0.3375  plane waves:   11620
 k-point 69 :   0.3500 0.3500 0.3500  plane waves:   11618
 k-point 70 :   0.3625 0.3625 0.3625  plane waves:   11618
 k-point 71 :   0.3750 0.3750 0.3750  plane waves:   11630
 k-point 72 :   0.3875 0.3875 0.3875  plane waves:   11642
 k-point 73 :   0.4000 0.4000 0.4000  plane waves:   11630
 k-point 74 :   0.4125 0.4125 0.4125  plane waves:   11618
 k-point 75 :   0.4250 0.4250 0.4250  plane waves:   11618
 k-point 76 :   0.4375 0.4375 0.4375  plane waves:   11606
 k-point 77 :   0.4500 0.4500 0.4500  plane waves:   11606
 k-point 78 :   0.4625 0.4625 0.4625  plane waves:   11606
 k-point 79 :   0.4750 0.4750 0.4750  plane waves:   11606
 k-point 80 :   0.4875 0.4875 0.4875  plane waves:   11606
 k-point 81 :   0.5000 0.5000 0.5000  plane waves:   11600
 k-point 82 :   0.5000 0.5000 0.4875  plane waves:   11596
 k-point 83 :   0.5000 0.5000 0.4750  plane waves:   11584
 k-point 84 :   0.5000 0.5000 0.4625  plane waves:   11570
 k-point 85 :   0.5000 0.5000 0.4500  plane waves:   11576
 k-point 86 :   0.5000 0.5000 0.4375  plane waves:   11562
 k-point 87 :   0.5000 0.5000 0.4250  plane waves:   11570
 k-point 88 :   0.5000 0.5000 0.4125  plane waves:   11570
 k-point 89 :   0.5000 0.5000 0.4000  plane waves:   11556
 k-point 90 :   0.5000 0.5000 0.3875  plane waves:   11544
 k-point 91 :   0.5000 0.5000 0.3750  plane waves:   11540
 k-point 92 :   0.5000 0.5000 0.3625  plane waves:   11560
 k-point 93 :   0.5000 0.5000 0.3500  plane waves:   11552
 k-point 94 :   0.5000 0.5000 0.3375  plane waves:   11566
 k-point 95 :   0.5000 0.5000 0.3250  plane waves:   11570
 k-point 96 :   0.5000 0.5000 0.3125  plane waves:   11574
 k-point 97 :   0.5000 0.5000 0.3000  plane waves:   11576
 k-point 98 :   0.5000 0.5000 0.2875  plane waves:   11592
 k-point 99 :   0.5000 0.5000 0.2750  plane waves:   11588
 k-point ** :   0.5000 0.5000 0.2625  plane waves:   11582
 k-point ** :   0.5000 0.5000 0.2500  plane waves:   11578
 k-point ** :   0.5000 0.5000 0.2375  plane waves:   11576
 k-point ** :   0.5000 0.5000 0.2250  plane waves:   11586
 k-point ** :   0.5000 0.5000 0.2125  plane waves:   11590
 k-point ** :   0.5000 0.5000 0.2000  plane waves:   11612
 k-point ** :   0.5000 0.5000 0.1875  plane waves:   11610
 k-point ** :   0.5000 0.5000 0.1750  plane waves:   11596
 k-point ** :   0.5000 0.5000 0.1625  plane waves:   11598
 k-point ** :   0.5000 0.5000 0.1500  plane waves:   11608
 k-point ** :   0.5000 0.5000 0.1375  plane waves:   11612
 k-point ** :   0.5000 0.5000 0.1250  plane waves:   11606
 k-point ** :   0.5000 0.5000 0.1125  plane waves:   11608
 k-point ** :   0.5000 0.5000 0.1000  plane waves:   11608
 k-point ** :   0.5000 0.5000 0.0875  plane waves:   11596
 k-point ** :   0.5000 0.5000 0.0750  plane waves:   11578
 k-point ** :   0.5000 0.5000 0.0625  plane waves:   11572
 k-point ** :   0.5000 0.5000 0.0500  plane waves:   11576
 k-point ** :   0.5000 0.5000 0.0375  plane waves:   11578
 k-point ** :   0.5000 0.5000 0.0250  plane waves:   11588
 k-point ** :   0.5000 0.5000 0.0125  plane waves:   11584
 k-point ** :   0.5000 0.5000 0.0000  plane waves:   11596
 k-point ** :   0.4875 0.4875 0.0000  plane waves:   11580
 k-point ** :   0.4750 0.4750 0.0000  plane waves:   11590
 k-point ** :   0.4625 0.4625 0.0000  plane waves:   11584
 k-point ** :   0.4500 0.4500 0.0000  plane waves:   11570
 k-point ** :   0.4375 0.4375 0.0000  plane waves:   11572
 k-point ** :   0.4250 0.4250 0.0000  plane waves:   11596
 k-point ** :   0.4125 0.4125 0.0000  plane waves:   11584
 k-point ** :   0.4000 0.4000 0.0000  plane waves:   11590
 k-point ** :   0.3875 0.3875 0.0000  plane waves:   11612
 k-point ** :   0.3750 0.3750 0.0000  plane waves:   11598
 k-point ** :   0.3625 0.3625 0.0000  plane waves:   11596
 k-point ** :   0.3500 0.3500 0.0000  plane waves:   11570
 k-point ** :   0.3375 0.3375 0.0000  plane waves:   11568
 k-point ** :   0.3250 0.3250 0.0000  plane waves:   11556
 k-point ** :   0.3125 0.3125 0.0000  plane waves:   11550
 k-point ** :   0.3000 0.3000 0.0000  plane waves:   11546
 k-point ** :   0.2875 0.2875 0.0000  plane waves:   11564
 k-point ** :   0.2750 0.2750 0.0000  plane waves:   11552
 k-point ** :   0.2625 0.2625 0.0000  plane waves:   11556
 k-point ** :   0.2500 0.2500 0.0000  plane waves:   11580
 k-point ** :   0.2375 0.2375 0.0000  plane waves:   11566
 k-point ** :   0.2250 0.2250 0.0000  plane waves:   11584
 k-point ** :   0.2125 0.2125 0.0000  plane waves:   11584
 k-point ** :   0.2000 0.2000 0.0000  plane waves:   11570
 k-point ** :   0.1875 0.1875 0.0000  plane waves:   11582
 k-point ** :   0.1750 0.1750 0.0000  plane waves:   11580
 k-point ** :   0.1625 0.1625 0.0000  plane waves:   11562
 k-point ** :   0.1500 0.1500 0.0000  plane waves:   11558
 k-point ** :   0.1375 0.1375 0.0000  plane waves:   11550
 k-point ** :   0.1250 0.1250 0.0000  plane waves:   11556
 k-point ** :   0.1125 0.1125 0.0000  plane waves:   11570
 k-point ** :   0.1000 0.1000 0.0000  plane waves:   11570
 k-point ** :   0.0875 0.0875 0.0000  plane waves:   11584
 k-point ** :   0.0750 0.0750 0.0000  plane waves:   11590
 k-point ** :   0.0625 0.0625 0.0000  plane waves:   11590
 k-point ** :   0.0500 0.0500 0.0000  plane waves:   11572
 k-point ** :   0.0375 0.0375 0.0000  plane waves:   11572
 k-point ** :   0.0250 0.0250 0.0000  plane waves:   11568
 k-point ** :   0.0125 0.0125 0.0000  plane waves:   11568
 k-point ** :  -0.0000 0.0000 0.0000  plane waves:   11578
 k-point ** :   0.0165 0.0105 0.0105  plane waves:   11564
 k-point ** :   0.0331 0.0210 0.0210  plane waves:   11564
 k-point ** :   0.0496 0.0314 0.0314  plane waves:   11568
 k-point ** :   0.0661 0.0419 0.0419  plane waves:   11564
 k-point ** :   0.0827 0.0524 0.0524  plane waves:   11568
 k-point ** :   0.0992 0.0629 0.0629  plane waves:   11572
 k-point ** :   0.1157 0.0734 0.0734  plane waves:   11564
 k-point ** :   0.1323 0.0839 0.0839  plane waves:   11564
 k-point ** :   0.1488 0.0943 0.0943  plane waves:   11564
 k-point ** :   0.1653 0.1048 0.1048  plane waves:   11568
 k-point ** :   0.1819 0.1153 0.1153  plane waves:   11568
 k-point ** :   0.1984 0.1258 0.1258  plane waves:   11570
 k-point ** :   0.2149 0.1363 0.1363  plane waves:   11562
 k-point ** :   0.2315 0.1468 0.1468  plane waves:   11554
 k-point ** :   0.2480 0.1572 0.1572  plane waves:   11550
 k-point ** :   0.2645 0.1677 0.1677  plane waves:   11554
 k-point ** :   0.2811 0.1782 0.1782  plane waves:   11550
 k-point ** :   0.2976 0.1887 0.1887  plane waves:   11550
 k-point ** :   0.3141 0.1992 0.1992  plane waves:   11550
 k-point ** :   0.3307 0.2097 0.2097  plane waves:   11546
 k-point ** :   0.3472 0.2201 0.2201  plane waves:   11546
 k-point ** :   0.3637 0.2306 0.2306  plane waves:   11544
 k-point ** :   0.3803 0.2411 0.2411  plane waves:   11548
 k-point ** :   0.3968 0.2516 0.2516  plane waves:   11540
 k-point ** :   0.4133 0.2621 0.2621  plane waves:   11536
 k-point ** :   0.4299 0.2726 0.2726  plane waves:   11548
 k-point ** :   0.4464 0.2830 0.2830  plane waves:   11560
 k-point ** :   0.4630 0.2935 0.2935  plane waves:   11556
 k-point ** :   0.4795 0.3040 0.3040  plane waves:   11550
 k-point ** :   0.4960 0.3145 0.3145  plane waves:   11558
 k-point ** :   0.5126 0.3250 0.3250  plane waves:   11562
 k-point ** :   0.5291 0.3355 0.3355  plane waves:   11578
 k-point ** :   0.5456 0.3459 0.3459  plane waves:   11586
 k-point ** :   0.5622 0.3564 0.3564  plane waves:   11570
 k-point ** :   0.5787 0.3669 0.3669  plane waves:   11586
 k-point ** :   0.5952 0.3774 0.3774  plane waves:   11580
 k-point ** :   0.6118 0.3879 0.3879  plane waves:   11582
 k-point ** :   0.6283 0.3984 0.3984  plane waves:   11578
 k-point ** :   0.6448 0.4088 0.4088  plane waves:   11572
 k-point ** :   0.6614 0.4193 0.4193  plane waves:   11568

 maximum and minimum number of plane-waves per node :      5834     5752

 maximum number of plane-waves:     11642
 maximum index in each direction: 
   IXMAX=   20   IYMAX=   20   IZMAX=   20
   IXMIN=  -21   IYMIN=  -21   IZMIN=  -21


 parallel 3D FFT for wavefunctions:
    minimum data exchange during FFTs selected (reduces bandwidth)
 parallel 3D FFT for charge:
    minimum data exchange during FFTs selected (reduces bandwidth)


 total amount of memory used by VASP MPI-rank0  1771383. kBytes
=======================================================================

   base      :      30000. kBytes
   nonl-proj :     122312. kBytes
   fftplans  :     182239. kBytes
   grid      :     180182. kBytes
   one-center:         97. kBytes
   wavefun   :    1256553. kBytes

     INWAV:  cpu time    0.0001: real time    0.0000
 initial charge density was supplied:
 number of electron      28.0000000 magnetization      -0.0000611     -0.0000625     -0.0000622
 keeping initial charge density in first step


--------------------------------------------------------------------------------------------------------


 Maximum index for augmentation-charges       315445 (set IRDMAX)


--------------------------------------------------------------------------------------------------------


 First call to EWALD:  gamma=   0.318
 Maximum number of real-space cells 4x 4x 4
 Maximum number of reciprocal cells 5x 5x 5

    FEWALD:  cpu time    0.0011: real time    0.0011


--------------------------------------- Iteration      1(   1)  ---------------------------------------


    POTLOK:  cpu time    4.0071: real time    4.0076
    SETDIJ:  cpu time    6.6821: real time    6.6834
    TRIAL :  cpu time  749.1801: real time  749.3063
    CORREC:  cpu time    0.0067: real time    0.0068
    --------------------------------------------
      LOOP:  cpu time  760.3867: real time  760.5151

 eigenvalue-minimisations  : 35376
 total energy-change (2. order) : 0.1281865E+03  (-0.1462037E+04)
 number of electron      28.0000000 magnetization      -0.0000611     -0.0000625     -0.0000622
 augmentation part       28.0000000 magnetization      -0.0000611     -0.0000625     -0.0000622

 Free energy of the ion-electron system (eV)
  ---------------------------------------------------
  alpha Z        PSCENC =         5.96247035
  Ewald energy   TEWEN  =      -980.81834700
  -Hartree energ DENC   =       -61.15400375
  -exchange      EXHF   =         0.00000000
  -V(xc)+E(xc)   XCENC  =      -303.89343352
  PAW double counting   =      1899.33427477    -1550.30480448
  entropy T*S    EENTRO =        -0.00013392
  eigenvalues    EBANDS =       147.61903194
  atomic energy  EATOM  =       971.44149227
  ---------------------------------------------------
  free energy    TOTEN  =       128.18654666 eV

  energy without entropy =      128.18668058  energy(sigma->0) =      128.18661362


--------------------------------------------------------------------------------------------------------




--------------------------------------- Iteration      1(   2)  ---------------------------------------


    TRIAL :  cpu time  920.0315: real time  920.1492
    CORREC:  cpu time    0.0056: real time    0.0056
    --------------------------------------------
      LOOP:  cpu time  920.0418: real time  920.1735

 eigenvalue-minimisations  : 43768
 total energy-change (2. order) :-0.1269059E+03  (-0.1160159E+03)
 number of electron      28.0000000 magnetization      -0.0000611     -0.0000625     -0.0000622
 augmentation part       28.0000000 magnetization      -0.0000611     -0.0000625     -0.0000622

 Free energy of the ion-electron system (eV)
  ---------------------------------------------------
  alpha Z        PSCENC =         5.96247035
  Ewald energy   TEWEN  =      -980.81834700
  -Hartree energ DENC   =       -61.15400375
  -exchange      EXHF   =         0.00000000
  -V(xc)+E(xc)   XCENC  =      -303.89343352
  PAW double counting   =      1899.33427477    -1550.30480448
  entropy T*S    EENTRO =        -0.00005558
  eigenvalues    EBANDS =        20.71307589
  atomic energy  EATOM  =       971.44149227
  ---------------------------------------------------
  free energy    TOTEN  =         1.28066895 eV

  energy without entropy =        1.28072453  energy(sigma->0) =        1.28069674


--------------------------------------------------------------------------------------------------------




--------------------------------------- Iteration      1(   3)  ---------------------------------------


    TRIAL :  cpu time  812.2185: real time  891.4787
    CORREC:  cpu time    0.0023: real time    0.0023
    --------------------------------------------
      LOOP:  cpu time  812.2218: real time  891.4813

 eigenvalue-minimisations  : 41992
 total energy-change (2. order) :-0.1147994E+02  (-0.1120411E+02)
 number of electron      28.0000000 magnetization      -0.0000611     -0.0000625     -0.0000622
 augmentation part       28.0000000 magnetization      -0.0000611     -0.0000625     -0.0000622

 Free energy of the ion-electron system (eV)
  ---------------------------------------------------
  alpha Z        PSCENC =         5.96247035
  Ewald energy   TEWEN  =      -980.81834700
  -Hartree energ DENC   =       -61.15400375
  -exchange      EXHF   =         0.00000000
  -V(xc)+E(xc)   XCENC  =      -303.89343352
  PAW double counting   =      1899.33427477    -1550.30480448
  entropy T*S    EENTRO =        -0.00000000
  eigenvalues    EBANDS =         9.23307892
  atomic energy  EATOM  =       971.44149227
  ---------------------------------------------------
  free energy    TOTEN  =       -10.19927244 eV

  energy without entropy =      -10.19927244  energy(sigma->0) =      -10.19927244


--------------------------------------------------------------------------------------------------------




--------------------------------------- Iteration      1(   4)  ---------------------------------------


    TRIAL :  cpu time  770.2715: real time  903.6474
    CORREC:  cpu time    0.0024: real time    0.0029
    --------------------------------------------
      LOOP:  cpu time  770.2742: real time  903.6516

 eigenvalue-minimisations  : 42880
 total energy-change (2. order) :-0.3059877E+00  (-0.3057004E+00)
 number of electron      28.0000000 magnetization      -0.0000611     -0.0000625     -0.0000622
 augmentation part       28.0000000 magnetization      -0.0000611     -0.0000625     -0.0000622

 Free energy of the ion-electron system (eV)
  ---------------------------------------------------
  alpha Z        PSCENC =         5.96247035
  Ewald energy   TEWEN  =      -980.81834700
  -Hartree energ DENC   =       -61.15400375
  -exchange      EXHF   =         0.00000000
  -V(xc)+E(xc)   XCENC  =      -303.89343352
  PAW double counting   =      1899.33427477    -1550.30480448
  entropy T*S    EENTRO =        -0.00000000
  eigenvalues    EBANDS =         8.92709124
  atomic energy  EATOM  =       971.44149227
  ---------------------------------------------------
  free energy    TOTEN  =       -10.50526011 eV

  energy without entropy =      -10.50526011  energy(sigma->0) =      -10.50526011


--------------------------------------------------------------------------------------------------------




--------------------------------------- Iteration      1(   5)  ---------------------------------------


    TRIAL :  cpu time  758.5203: real time  887.2708
    CORREC:  cpu time    0.0023: real time    0.0023
    --------------------------------------------
      LOOP:  cpu time  758.5231: real time  887.2754

 eigenvalue-minimisations  : 40896
 total energy-change (2. order) :-0.7147308E-02  (-0.7146862E-02)
 number of electron      28.0000000 magnetization      -0.0000611     -0.0000625     -0.0000622
 augmentation part       28.0000000 magnetization      -0.0000611     -0.0000625     -0.0000622

 Free energy of the ion-electron system (eV)
  ---------------------------------------------------
  alpha Z        PSCENC =         5.96247035
  Ewald energy   TEWEN  =      -980.81834700
  -Hartree energ DENC   =       -61.15400375
  -exchange      EXHF   =         0.00000000
  -V(xc)+E(xc)   XCENC  =      -303.89343352
  PAW double counting   =      1899.33427477    -1550.30480448
  entropy T*S    EENTRO =        -0.00000000
  eigenvalues    EBANDS =         8.91994394
  atomic energy  EATOM  =       971.44149227
  ---------------------------------------------------
  free energy    TOTEN  =       -10.51240742 eV

  energy without entropy =      -10.51240742  energy(sigma->0) =      -10.51240742


--------------------------------------------------------------------------------------------------------




--------------------------------------- Iteration      1(   6)  ---------------------------------------


    TRIAL :  cpu time  489.1643: real time  573.7854
    CORREC:  cpu time  125.4647: real time  147.3071
    --------------------------------------------
      LOOP:  cpu time  614.6293: real time  721.0928

 eigenvalue-minimisations  :     0
 total energy-change (2. order) :-0.5456968E-11  (-0.2577966E-03)
 number of electron      28.0000000 magnetization      -0.0000611     -0.0000625     -0.0000622
 augmentation part       28.0000000 magnetization      -0.0000611     -0.0000625     -0.0000622

 Free energy of the ion-electron system (eV)
  ---------------------------------------------------
  alpha Z        PSCENC =         5.96247035
  Ewald energy   TEWEN  =      -980.81834700
  -Hartree energ DENC   =       -61.15400375
  -exchange      EXHF   =         0.00000000
  -V(xc)+E(xc)   XCENC  =      -303.89343352
  PAW double counting   =      1899.33427477    -1550.30480448
  entropy T*S    EENTRO =        -0.00000000
  eigenvalues    EBANDS =         8.91994394
  atomic energy  EATOM  =       971.44149227
  ---------------------------------------------------
  free energy    TOTEN  =       -10.51240742 eV

  energy without entropy =      -10.51240742  energy(sigma->0) =      -10.51240742


--------------------------------------------------------------------------------------------------------




--------------------------------------- Iteration      1(   7)  ---------------------------------------


    TRIAL :  cpu time  496.4267: real time  573.3494
    CORREC:  cpu time  130.8844: real time  147.9623
    --------------------------------------------
      LOOP:  cpu time  627.3116: real time  721.3127

 eigenvalue-minimisations  :     0
 total energy-change (2. order) :-0.2577965E-03  (-0.7113322E-04)
 number of electron      28.0000000 magnetization      -0.0000611     -0.0000625     -0.0000622
 augmentation part       28.0000000 magnetization      -0.0000611     -0.0000625     -0.0000622

 Free energy of the ion-electron system (eV)
  ---------------------------------------------------
  alpha Z        PSCENC =         5.96247035
  Ewald energy   TEWEN  =      -980.81834700
  -Hartree energ DENC   =       -61.15400375
  -exchange      EXHF   =         0.00000000
  -V(xc)+E(xc)   XCENC  =      -303.89343352
  PAW double counting   =      1899.33427477    -1550.30480448
  entropy T*S    EENTRO =        -0.00000000
  eigenvalues    EBANDS =         8.91968614
  atomic energy  EATOM  =       971.44149227
  ---------------------------------------------------
  free energy    TOTEN  =       -10.51266522 eV

  energy without entropy =      -10.51266522  energy(sigma->0) =      -10.51266522


--------------------------------------------------------------------------------------------------------




--------------------------------------- Iteration      1(   8)  ---------------------------------------


    TRIAL :  cpu time  576.9757: real time  577.4839
    CORREC:  cpu time  137.8299: real time  151.5665
    --------------------------------------------
      LOOP:  cpu time  714.8059: real time  729.0507

 eigenvalue-minimisations  :     0
 total energy-change (2. order) :-0.7113299E-04  (-0.2281470E-04)
 number of electron      28.0000000 magnetization      -0.0000611     -0.0000625     -0.0000622
 augmentation part       28.0000000 magnetization      -0.0000611     -0.0000625     -0.0000622

 Free energy of the ion-electron system (eV)
  ---------------------------------------------------
  alpha Z        PSCENC =         5.96247035
  Ewald energy   TEWEN  =      -980.81834700
  -Hartree energ DENC   =       -61.15400375
  -exchange      EXHF   =         0.00000000
  -V(xc)+E(xc)   XCENC  =      -303.89343352
  PAW double counting   =      1899.33427477    -1550.30480448
  entropy T*S    EENTRO =        -0.00000000
  eigenvalues    EBANDS =         8.91961501
  atomic energy  EATOM  =       971.44149227
  ---------------------------------------------------
  free energy    TOTEN  =       -10.51273635 eV

  energy without entropy =      -10.51273635  energy(sigma->0) =      -10.51273635


--------------------------------------------------------------------------------------------------------




--------------------------------------- Iteration      1(   9)  ---------------------------------------


    TRIAL :  cpu time  577.2374: real time  611.2060
    CORREC:  cpu time  150.3479: real time  150.3642
    --------------------------------------------
      LOOP:  cpu time  727.5856: real time  761.5705

 eigenvalue-minimisations  :     0
 total energy-change (2. order) :-0.2281453E-04  (-0.1737793E-05)
 number of electron      28.0000000 magnetization      -0.0000611     -0.0000625     -0.0000622
 augmentation part       28.0000000 magnetization      -0.0000611     -0.0000625     -0.0000622

 Free energy of the ion-electron system (eV)
  ---------------------------------------------------
  alpha Z        PSCENC =         5.96247035
  Ewald energy   TEWEN  =      -980.81834700
  -Hartree energ DENC   =       -61.15400375
  -exchange      EXHF   =         0.00000000
  -V(xc)+E(xc)   XCENC  =      -303.89343352
  PAW double counting   =      1899.33427477    -1550.30480448
  entropy T*S    EENTRO =        -0.00000000
  eigenvalues    EBANDS =         8.91959219
  atomic energy  EATOM  =       971.44149227
  ---------------------------------------------------
  free energy    TOTEN  =       -10.51275916 eV

  energy without entropy =      -10.51275916  energy(sigma->0) =      -10.51275916


--------------------------------------------------------------------------------------------------------




--------------------------------------- Iteration      1(  10)  ---------------------------------------


    TRIAL :  cpu time  690.5079: real time  690.5710
    CORREC:  cpu time  161.9698: real time  161.9887
    --------------------------------------------
      LOOP:  cpu time  852.4781: real time  852.5601

 eigenvalue-minimisations  :     0
 total energy-change (2. order) :-0.1737787E-05  (-0.1466162E-06)
 number of electron      28.0000000 magnetization      -0.0000611     -0.0000625     -0.0000622
 augmentation part       28.0000000 magnetization      -0.0000611     -0.0000625     -0.0000622

 Free energy of the ion-electron system (eV)
  ---------------------------------------------------
  alpha Z        PSCENC =         5.96247035
  Ewald energy   TEWEN  =      -980.81834700
  -Hartree energ DENC   =       -61.15400375
  -exchange      EXHF   =         0.00000000
  -V(xc)+E(xc)   XCENC  =      -303.89343352
  PAW double counting   =      1899.33427477    -1550.30480448
  entropy T*S    EENTRO =        -0.00000000
  eigenvalues    EBANDS =         8.91959045
  atomic energy  EATOM  =       971.44149227
  ---------------------------------------------------
  free energy    TOTEN  =       -10.51276090 eV

  energy without entropy =      -10.51276090  energy(sigma->0) =      -10.51276090


--------------------------------------------------------------------------------------------------------




--------------------------------------- Iteration      1(  11)  ---------------------------------------


    TRIAL :  cpu time  797.1559: real time  800.1786
    CORREC:  cpu time  175.1088: real time  175.2234
    --------------------------------------------
      LOOP:  cpu time  972.2651: real time  975.4024

 eigenvalue-minimisations  :     0
 total energy-change (2. order) :-0.1466171E-06  (-0.2844617E-07)
 number of electron      28.0000000 magnetization      -0.0000611     -0.0000625     -0.0000622
 augmentation part       28.0000000 magnetization      -0.0000611     -0.0000625     -0.0000622

 Free energy of the ion-electron system (eV)
  ---------------------------------------------------
  alpha Z        PSCENC =         5.96247035
  Ewald energy   TEWEN  =      -980.81834700
  -Hartree energ DENC   =       -61.15400375
  -exchange      EXHF   =         0.00000000
  -V(xc)+E(xc)   XCENC  =      -303.89343352
  PAW double counting   =      1899.33427477    -1550.30480448
  entropy T*S    EENTRO =        -0.00000000
  eigenvalues    EBANDS =         8.91959031
  atomic energy  EATOM  =       971.44149227
  ---------------------------------------------------
  free energy    TOTEN  =       -10.51276105 eV

  energy without entropy =      -10.51276105  energy(sigma->0) =      -10.51276105


--------------------------------------------------------------------------------------------------------




--------------------------------------- Iteration      1(  12)  ---------------------------------------


    TRIAL :  cpu time  817.6110: real time  818.0193
    CORREC:  cpu time  161.8527: real time  162.7530
    EDDIAG:  cpu time  274.1434: real time  276.3362
    --------------------------------------------
      LOOP:  cpu time 1253.6118: real time 1257.1132

 eigenvalue-minimisations  :     0
 total energy-change (2. order) :-0.2844490E-07  (-0.7093023E-08)
 number of electron      28.0000000 magnetization      -0.0000611     -0.0000625     -0.0000622
 augmentation part       28.0000000 magnetization      -0.0000611     -0.0000625     -0.0000622

 Free energy of the ion-electron system (eV)
  ---------------------------------------------------
  alpha Z        PSCENC =         5.96247035
  Ewald energy   TEWEN  =      -980.81834700
  -Hartree energ DENC   =       -61.15400375
  -exchange      EXHF   =         0.00000000
  -V(xc)+E(xc)   XCENC  =      -303.89343352
  PAW double counting   =      1899.33427477    -1550.30480448
  entropy T*S    EENTRO =        -0.00000000
  eigenvalues    EBANDS =         8.91959028
  atomic energy  EATOM  =       971.44149227
  ---------------------------------------------------
  free energy    TOTEN  =       -10.51276108 eV

  energy without entropy =      -10.51276108  energy(sigma->0) =      -10.51276108


--------------------------------------------------------------------------------------------------------


  average scaling for gradient   1.3807


 average (electrostatic) potential at core
  the test charge radii are     1.4024  1.1897
  (the norm of the test charge is              1.0000)
       1 -61.8323       2 -61.8323       3 -88.6910       4 -88.9253       5 -88.9253



 E-fermi :   5.3162     XC(G=0):  -9.1332     alpha+bet :-10.2608


 k-point     1 :       0.8227    0.3386    0.3386
  band No.  band energies     occupation 
      1      -6.0134      1.00000
      2      -6.0134      1.00000
      3      -5.9176      1.00000
      4      -5.9175      1.00000
      5      -5.4737      1.00000
      6      -5.4737      1.00000
      7      -4.8335      1.00000
      8      -4.8335      1.00000
      9      -4.2484      1.00000
     10      -4.2484      1.00000
     11       0.5443      1.00000
     12       0.5443      1.00000
     13       1.3342      1.00000
     14       1.3342      1.00000
     15       1.5590      1.00000
     16       1.5590      1.00000
     17       2.3491      1.00000
     18       2.3491      1.00000
     19       2.5749      1.00000
     20       2.5749      1.00000
     21       3.2587      1.00000
     22       3.2587      1.00000
     23       3.7399      1.00000
     24       3.7399      1.00000
     25       4.3820      1.00000
     26       4.3820      1.00000
     27       4.4904      1.00000
     28       4.4904      1.00000
     29       6.2983      0.00000
     30       6.2983      0.00000
     31       6.9341      0.00000
     32       6.9341      0.00000
     33       7.3984      0.00000
     34       7.3984      0.00000
     35       7.7630      0.00000
     36       7.7630      0.00000
     37       8.5762      0.00000
     38       8.5763      0.00000
     39       9.0922      0.00000
     40       9.0922      0.00000
     41      10.3032      0.00000
     42      10.3032      0.00000
     43      10.6837      0.00000
     44      10.6838      0.00000
     45      12.3246      0.00000
     46      12.3246      0.00000
     47      13.6798      0.00000
     48      13.6798      0.00000
     49      13.9825      0.00000
     50      13.9825      0.00000
     51      14.2739      0.00000
     52      14.2739      0.00000
     53      14.3707      0.00000
     54      14.3707      0.00000
     55      14.7257      0.00000
     56      14.7257      0.00000
     57      14.8835      0.00000
     58      14.8835      0.00000
     59      15.4250      0.00000
     60      15.4250      0.00000
     61      15.7397      0.00000
     62      15.7398      0.00000
     63      15.8705      0.00000
     64      15.8706      0.00000
     65      16.0448      0.00000
     66      16.0448      0.00000
     67      16.2367      0.00000
     68      16.2367      0.00000
     69      16.3876      0.00000
     70      16.3876      0.00000
     71      16.9369      0.00000
     72      16.9369      0.00000
     73      17.2357      0.00000
     74      17.2357      0.00000
     75      17.5315      0.00000
     76      17.5316      0.00000
     77      17.6343      0.00000
     78      17.6343      0.00000
     79      18.2779      0.00000
     80      18.2781      0.00000
     81      18.4183      0.00000
     82      18.4184      0.00000
     83      18.8993      0.00000
     84      18.9023      0.00000
     85      19.1028      0.00000
     86      19.1081      0.00000
     87      19.1997      0.00000
     88      19.2520      0.00000

 k-point     2 :       0.8021    0.3302    0.3302
  band No.  band energies     occupation 
      1      -6.0520      1.00000
      2      -6.0520      1.00000
      3      -5.9125      1.00000
      4      -5.9125      1.00000
      5      -5.4855      1.00000
      6      -5.4855      1.00000
      7      -4.7724      1.00000
      8      -4.7724      1.00000
      9      -4.2661      1.00000
     10      -4.2661      1.00000
     11       0.5667      1.00000
     12       0.5667      1.00000
     13       1.3116      1.00000
     14       1.3117      1.00000
     15       1.5851      1.00000
     16       1.5851      1.00000
     17       2.3633      1.00000
     18       2.3633      1.00000
     19       2.5456      1.00000
     20       2.5456      1.00000
     21       3.2369      1.00000
     22       3.2369      1.00000
     23       3.7637      1.00000
     24       3.7637      1.00000
     25       4.4286      1.00000
     26       4.4286      1.00000
     27       4.5207      1.00000
     28       4.5207      1.00000
     29       6.2595      0.00000
     30       6.2595      0.00000
     31       6.9054      0.00000
     32       6.9054      0.00000
     33       7.3652      0.00000
     34       7.3652      0.00000
     35       7.7803      0.00000
     36       7.7803      0.00000
     37       8.5936      0.00000
     38       8.5937      0.00000
     39       9.1204      0.00000
     40       9.1204      0.00000
     41      10.3058      0.00000
     42      10.3058      0.00000
     43      10.6244      0.00000
     44      10.6244      0.00000
     45      12.4777      0.00000
     46      12.4777      0.00000
     47      13.5409      0.00000
     48      13.5410      0.00000
     49      13.9727      0.00000
     50      13.9727      0.00000
     51      14.1903      0.00000
     52      14.1903      0.00000
     53      14.2685      0.00000
     54      14.2685      0.00000
     55      14.6115      0.00000
     56      14.6115      0.00000
     57      15.0111      0.00000
     58      15.0111      0.00000
     59      15.3643      0.00000
     60      15.3643      0.00000
     61      15.6937      0.00000
     62      15.6937      0.00000
     63      15.9390      0.00000
     64      15.9390      0.00000
     65      16.1206      0.00000
     66      16.1206      0.00000
     67      16.3514      0.00000
     68      16.3514      0.00000
     69      16.5353      0.00000
     70      16.5353      0.00000
     71      16.8259      0.00000
     72      16.8259      0.00000
     73      17.1216      0.00000
     74      17.1216      0.00000
     75      17.4097      0.00000
     76      17.4097      0.00000
     77      17.6662      0.00000
     78      17.6663      0.00000
     79      18.3786      0.00000
     80      18.3792      0.00000
     81      18.5175      0.00000
     82      18.5188      0.00000
     83      18.8126      0.00000
     84      18.8305      0.00000
     85      18.9737      0.00000
     86      18.9811      0.00000
     87      19.2461      0.00000
     88      19.3201      0.00000

 k-point     3 :       0.7816    0.3217    0.3217
  band No.  band energies     occupation 
      1      -6.0941      1.00000
      2      -6.0941      1.00000
      3      -5.9317      1.00000
      4      -5.9317      1.00000
      5      -5.4760      1.00000
      6      -5.4759      1.00000
      7      -4.7076      1.00000
      8      -4.7076      1.00000
      9      -4.2815      1.00000
     10      -4.2815      1.00000
     11       0.5934      1.00000
     12       0.5934      1.00000
     13       1.2916      1.00000
     14       1.2916      1.00000
     15       1.6171      1.00000
     16       1.6171      1.00000
     17       2.3801      1.00000
     18       2.3801      1.00000
     19       2.5185      1.00000
     20       2.5185      1.00000
     21       3.2141      1.00000
     22       3.2141      1.00000
     23       3.7935      1.00000
     24       3.7935      1.00000
     25       4.4753      1.00000
     26       4.4753      1.00000
     27       4.5529      1.00000
     28       4.5529      1.00000
     29       6.2197      0.00000
     30       6.2197      0.00000
     31       6.8788      0.00000
     32       6.8789      0.00000
     33       7.3307      0.00000
     34       7.3307      0.00000
     35       7.7977      0.00000
     36       7.7977      0.00000
     37       8.6169      0.00000
     38       8.6169      0.00000
     39       9.1421      0.00000
     40       9.1421      0.00000
[...]
  0.000   0.000   0.000   0.000   9.928   0.000   0.000   0.000  -0.000  -0.519   8.431   0.000   0.000   0.000  -0.000  -0.432
  0.006   0.000   0.007   0.000   0.000   0.000   9.928   0.000  -0.000   0.000   0.000   0.000   8.431   0.000  -0.000   0.000
  0.049   0.000   0.055   0.000  -0.000   0.519  -0.000   0.000   9.927   0.000  -0.000   0.432  -0.000   0.000   8.430   0.000
  0.000   0.000   0.000   0.000   8.431   0.000   0.000   0.000  -0.000  -0.432   7.232   0.000   0.000   0.000   0.000  -0.359
  0.005   0.000   0.006   0.000   0.000   0.000   8.431   0.000  -0.000   0.000   0.000   0.000   7.232   0.000  -0.000   0.000
  0.041   0.000   0.046   0.000  -0.000   0.432  -0.000   0.000   8.430   0.000   0.000   0.359  -0.000   0.000   7.231   0.000
 -0.000   0.000  -0.000   0.000   0.009   0.000   0.000   0.000  -0.000   0.000   0.008   0.000   0.000   0.000  -0.000   0.000
  0.000   0.000   0.000   0.000   0.000   0.000   0.000   0.000   0.000   0.000  -0.000   0.000   0.000   0.000   0.000   0.000
  0.000   0.000   0.000   0.000   0.000   0.000   0.002   0.000  -0.006   0.000   0.000   0.000   0.002   0.000  -0.005   0.000
 -0.000   0.000  -0.000   0.000   0.000   0.000   0.009   0.000   0.001   0.000   0.000   0.000   0.008   0.000   0.001   0.000
 -0.001   0.000  -0.001   0.000   0.000   0.000   0.001   0.000   0.010   0.000   0.000   0.000   0.001   0.000   0.009   0.000
 total augmentation occupancy for first ion, spin component:           1
  2.000   0.000   0.000   0.000   0.000   0.000   0.000   0.000   0.000   0.000   0.000   0.000   0.000
  0.000   0.000   0.000   0.000   0.000   0.000   0.000   0.000   0.000   0.000   0.000   0.000   0.000
  0.000   0.000   1.000   0.000   0.000   0.000   0.000   0.000   0.000   0.000   0.000   0.000   0.000
  0.000   0.000   0.000   1.000   0.000   0.000   0.000   0.000   0.000   0.000   0.000   0.000   0.000
  0.000   0.000   0.000   0.000   1.000   0.000   0.000   0.000   0.000   0.000   0.000   0.000   0.000
  0.000   0.000   0.000   0.000   0.000   0.000   0.000   0.000   0.000   0.000   0.000   0.000   0.000
  0.000   0.000   0.000   0.000   0.000   0.000   0.000   0.000   0.000   0.000   0.000   0.000   0.000
  0.000   0.000   0.000   0.000   0.000   0.000   0.000   0.000   0.000   0.000   0.000   0.000   0.000
  0.000   0.000   0.000   0.000   0.000   0.000   0.000   0.000   0.000   0.000   0.000   0.000   0.000
  0.000   0.000   0.000   0.000   0.000   0.000   0.000   0.000   0.000   0.000   0.000   0.000   0.000
  0.000   0.000   0.000   0.000   0.000   0.000   0.000   0.000   0.000   0.000   0.000   0.000   0.000
  0.000   0.000   0.000   0.000   0.000   0.000   0.000   0.000   0.000   0.000   0.000   0.000   0.000
  0.000   0.000   0.000   0.000   0.000   0.000   0.000   0.000   0.000   0.000   0.000   0.000   0.000
 total augmentation occupancy for first ion, spin component:           2
  0.400   0.000   0.000   0.000   0.000   0.000   0.000   0.000   0.000   0.000   0.000   0.000   0.000
  0.000   0.000   0.000   0.000   0.000   0.000   0.000   0.000   0.000   0.000   0.000   0.000   0.000
  0.000   0.000   0.200   0.000   0.000   0.000   0.000   0.000   0.000   0.000   0.000   0.000   0.000
  0.000   0.000   0.000   0.200   0.000   0.000   0.000   0.000   0.000   0.000   0.000   0.000   0.000
  0.000   0.000   0.000   0.000   0.200   0.000   0.000   0.000   0.000   0.000   0.000   0.000   0.000
  0.000   0.000   0.000   0.000   0.000   0.000   0.000   0.000   0.000   0.000   0.000   0.000   0.000
  0.000   0.000   0.000   0.000   0.000   0.000   0.000   0.000   0.000   0.000   0.000   0.000   0.000
  0.000   0.000   0.000   0.000   0.000   0.000   0.000   0.000   0.000   0.000   0.000   0.000   0.000
  0.000   0.000   0.000   0.000   0.000   0.000   0.000   0.000   0.000   0.000   0.000   0.000   0.000
  0.000   0.000   0.000   0.000   0.000   0.000   0.000   0.000   0.000   0.000   0.000   0.000   0.000
  0.000   0.000   0.000   0.000   0.000   0.000   0.000   0.000   0.000   0.000   0.000   0.000   0.000
  0.000   0.000   0.000   0.000   0.000   0.000   0.000   0.000   0.000   0.000   0.000   0.000   0.000
  0.000   0.000   0.000   0.000   0.000   0.000   0.000   0.000   0.000   0.000   0.000   0.000   0.000
 total augmentation occupancy for first ion, spin component:           3
  0.400   0.000   0.000   0.000   0.000   0.000   0.000   0.000   0.000   0.000   0.000   0.000   0.000
  0.000   0.000   0.000   0.000   0.000   0.000   0.000   0.000   0.000   0.000   0.000   0.000   0.000
  0.000   0.000   0.200   0.000   0.000   0.000   0.000   0.000   0.000   0.000   0.000   0.000   0.000
  0.000   0.000   0.000   0.200   0.000   0.000   0.000   0.000   0.000   0.000   0.000   0.000   0.000
  0.000   0.000   0.000   0.000   0.200   0.000   0.000   0.000   0.000   0.000   0.000   0.000   0.000
  0.000   0.000   0.000   0.000   0.000   0.000   0.000   0.000   0.000   0.000   0.000   0.000   0.000
  0.000   0.000   0.000   0.000   0.000   0.000   0.000   0.000   0.000   0.000   0.000   0.000   0.000
  0.000   0.000   0.000   0.000   0.000   0.000   0.000   0.000   0.000   0.000   0.000   0.000   0.000
  0.000   0.000   0.000   0.000   0.000   0.000   0.000   0.000   0.000   0.000   0.000   0.000   0.000
  0.000   0.000   0.000   0.000   0.000   0.000   0.000   0.000   0.000   0.000   0.000   0.000   0.000
  0.000   0.000   0.000   0.000   0.000   0.000   0.000   0.000   0.000   0.000   0.000   0.000   0.000
  0.000   0.000   0.000   0.000   0.000   0.000   0.000   0.000   0.000   0.000   0.000   0.000   0.000
  0.000   0.000   0.000   0.000   0.000   0.000   0.000   0.000   0.000   0.000   0.000   0.000   0.000
 total augmentation occupancy for first ion, spin component:           4
  0.400   0.000   0.000   0.000   0.000   0.000   0.000   0.000   0.000   0.000   0.000   0.000   0.000
  0.000   0.000   0.000   0.000   0.000   0.000   0.000   0.000   0.000   0.000   0.000   0.000   0.000
  0.000   0.000   0.200   0.000   0.000   0.000   0.000   0.000   0.000   0.000   0.000   0.000   0.000
  0.000   0.000   0.000   0.200   0.000   0.000   0.000   0.000   0.000   0.000   0.000   0.000   0.000
  0.000   0.000   0.000   0.000   0.200   0.000   0.000   0.000   0.000   0.000   0.000   0.000   0.000
  0.000   0.000   0.000   0.000   0.000   0.000   0.000   0.000   0.000   0.000   0.000   0.000   0.000
  0.000   0.000   0.000   0.000   0.000   0.000   0.000   0.000   0.000   0.000   0.000   0.000   0.000
  0.000   0.000   0.000   0.000   0.000   0.000   0.000   0.000   0.000   0.000   0.000   0.000   0.000
  0.000   0.000   0.000   0.000   0.000   0.000   0.000   0.000   0.000   0.000   0.000   0.000   0.000
  0.000   0.000   0.000   0.000   0.000   0.000   0.000   0.000   0.000   0.000   0.000   0.000   0.000
  0.000   0.000   0.000   0.000   0.000   0.000   0.000   0.000   0.000   0.000   0.000   0.000   0.000
  0.000   0.000   0.000   0.000   0.000   0.000   0.000   0.000   0.000   0.000   0.000   0.000   0.000
  0.000   0.000   0.000   0.000   0.000   0.000   0.000   0.000   0.000   0.000   0.000   0.000   0.000


------------------------ aborting loop because EDIFF is reached ----------------------------------------


    CHARGE:  cpu time   61.9399: real time   63.3708
    FORLOC:  cpu time    0.1020: real time    0.1026
    FORNL :  cpu time   78.0061: real time   79.7369
    STRESS:  cpu time  182.8789: real time  183.3941
    FORCOR:  cpu time    5.3060: real time    5.3110
    FORHAR:  cpu time    0.5238: real time    0.5239
    OFIELD:  cpu time    0.0279: real time    0.0280

 ---------------------------------------------------------------------------------------------

         DFTD3 V3.0 Rev 1        
 IVDW         = 11
 DF pbe       
 parameters
 VDW_S6       =    1.0000
 VDW_S8       =    0.7220
 VDW_SR       =    1.2170
 rs18     =    1.0000
 alpha6   =   14.0000
 alpha8   =   16.0000
 k1-k3    =   16.0000    1.3333   -4.0000
 VDW_RADIUS   =   50.2022 A
 VDW_CNRADIUS =   21.1671 A
 Edisp (eV)   -1.43187

 E6    (eV) :    -0.5311
 E8    (eV) :    -0.9007
 % E8        : 62.91
    FORVDW:  cpu time    0.0753: real time    0.0992

  FORCE on cell =-STRESS in cart. coord.  units (eV):
  Direction    XX          YY          ZZ          XY          YZ          ZX
  --------------------------------------------------------------------------------------
  Alpha Z     5.96247     5.96247     5.96247
  Ewald    -328.81473  -325.97959  -326.02446     0.00000    -0.00000    -0.35666
  Hartree    20.38156    23.92017    24.38449     0.21410     0.29129    -0.91043
  E(xc)    -115.90833  -116.67426  -116.64619     0.05808     0.02251     0.05150
  Local    -161.49753  -178.54161  -179.15988     0.26681    -0.10459     2.88376
  n-local   490.58279   500.07410   499.60309    -0.65510    -0.45553    -0.87913
  augment  -134.73102  -137.94949  -137.69825     0.11671     0.13052     0.29751
  Kinetic   230.62681   260.28979   253.27456     0.85692    -3.12909    -3.16757
  Fock        0.00000     0.00000     0.00000     0.00000     0.00000     0.00000
  vdW        -1.52963    -1.18245    -1.18794     0.00000    -0.00000    -0.04367
  -------------------------------------------------------------------------------------
  Total       5.07237    29.91913    22.50788     0.85753    -3.24489    -2.12470
  in kB      46.79567   276.02188   207.64866     7.91119   -29.93608   -19.60159
  external pressure =      176.82 kB  Pullay stress =        0.00 kB


 VOLUME and BASIS-vectors are now :
 -----------------------------------------------------------------------------
  energy-cutoff  :      600.00
  volume of cell :      173.67
      direct lattice vectors                 reciprocal lattice vectors
    10.263426447 -2.218816050  0.000000000     0.048716674 -0.225345404 -0.125000141
    10.263426447  2.218816050  0.000000000     0.048716674  0.225345404 -0.125000141
     9.783747980  0.000000000  3.813048985    -0.000000000  0.000000000  0.262257318

  length of vectors
    10.500526991 10.500526991 10.500526991     0.262257318  0.262257318  0.262257318


 FORCES acting on ions
    electron-ion (+dipol)            ewald-force                    non-local-force                 convergence-correction
 -----------------------------------------------------------------------------------------------
   -.368E+01 -.130E+00 -.229E+00   0.484E+01 0.114E-14 0.609E+00   -.583E+00 0.737E-01 -.303E+00   -.447E+00 0.263E-01 -.777E-01
   0.368E+01 0.130E+00 0.229E+00   -.484E+01 0.296E-14 -.609E+00   0.583E+00 -.737E-01 0.303E+00   0.447E+00 -.263E-01 0.777E-01
   -.162E-05 -.888E-06 0.420E-05   -.426E-13 -.300E-14 -.444E-14   0.118E-05 0.935E-06 -.373E-05   0.412E-06 0.229E-07 -.324E-06
   0.297E+02 -.340E+00 0.423E+01   -.275E+02 0.516E-14 -.346E+01   -.840E+00 0.166E+00 -.586E+00   -.112E+01 0.645E-01 -.172E+00
   -.297E+02 0.340E+00 -.423E+01   0.275E+02 -.614E-14 0.346E+01   0.840E+00 -.166E+00 0.586E+00   0.112E+01 -.645E-01 0.172E+00
 -----------------------------------------------------------------------------------------------
   -.264E-05 0.365E-06 0.742E-05   -.107E-13 0.126E-15 -.444E-14   0.247E-05 -.465E-06 -.761E-05   0.310E-06 -.420E-07 -.259E-06


 POSITION                                       TOTAL-FORCE (eV/Angst)
 -----------------------------------------------------------------------------------
     12.11198      0.00000      1.52368         0.146045     -0.029819      0.001028
     18.19862      0.00000      2.28937        -0.146045      0.029819     -0.001028
      0.00000      0.00000      0.00000        -0.000000      0.000000      0.000000
      6.39380      0.00000      0.80434         0.183204     -0.109870      0.010850
     23.91680      0.00000      3.00871        -0.183204      0.109870     -0.010850
 -----------------------------------------------------------------------------------
    total drift:                                0.000000     -0.000000     -0.000000


--------------------------------------------------------------------------------------------------------



  FREE ENERGIE OF THE ION-ELECTRON SYSTEM (eV)
  ---------------------------------------------------
  free  energy   TOTEN  =       -11.94463343 eV

  energy  without entropy=      -11.94463343  energy(sigma->0) =      -11.94463343



--------------------------------------------------------------------------------------------------------


    POTLOK:  cpu time   12.5687: real time   12.6045


--------------------------------------------------------------------------------------------------------


     LOOP+:  cpu time10133.3438: real time10734.1635
    4ORBIT:  cpu time    0.0000: real time    0.0000

 Spin-Orbit-Coupling matrix elements

 Ion:    1  E_soc:     -1.2008747
 l=   1
     0.0000000    -0.1897259    -0.2011827
    -0.1897259     0.0000000    -0.2042797
    -0.2011827    -0.2042797     0.0000000
 l=   2
     0.0000000    -0.0003759     0.0000000    -0.0002802    -0.0011476
    -0.0003759     0.0000000    -0.0013402    -0.0004423    -0.0005809
     0.0000000    -0.0013402     0.0000000    -0.0008540     0.0000000
    -0.0002802    -0.0004423    -0.0008540     0.0000000    -0.0002280
    -0.0011476    -0.0005809     0.0000000    -0.0002280     0.0000000
 l=   3
     0.0000000     0.0000000     0.0000000     0.0000000     0.0000000     0.0000000     0.0000000
     0.0000000     0.0000000     0.0000000     0.0000000     0.0000000     0.0000000     0.0000000
     0.0000000     0.0000000     0.0000000     0.0000000     0.0000000     0.0000000     0.0000000
     0.0000000     0.0000000     0.0000000     0.0000000     0.0000000     0.0000000     0.0000000
     0.0000000     0.0000000     0.0000000     0.0000000     0.0000000     0.0000000     0.0000000
     0.0000000     0.0000000     0.0000000     0.0000000     0.0000000     0.0000000     0.0000000
     0.0000000     0.0000000     0.0000000     0.0000000     0.0000000     0.0000000     0.0000000

 Ion:    2  E_soc:     -1.2008747
 l=   1
     0.0000000    -0.1897259    -0.2011828
    -0.1897259     0.0000000    -0.2042796
    -0.2011828    -0.2042796     0.0000000
 l=   2
     0.0000000    -0.0003759     0.0000000    -0.0002802    -0.0011476
    -0.0003759     0.0000000    -0.0013402    -0.0004423    -0.0005809
     0.0000000    -0.0013402     0.0000000    -0.0008540     0.0000000
    -0.0002802    -0.0004423    -0.0008540     0.0000000    -0.0002280
    -0.0011476    -0.0005809     0.0000000    -0.0002280     0.0000000
 l=   3
     0.0000000     0.0000000     0.0000000     0.0000000     0.0000000     0.0000000     0.0000000
     0.0000000     0.0000000     0.0000000     0.0000000     0.0000000     0.0000000     0.0000000
     0.0000000     0.0000000     0.0000000     0.0000000     0.0000000     0.0000000     0.0000000
     0.0000000     0.0000000     0.0000000     0.0000000     0.0000000     0.0000000     0.0000000
     0.0000000     0.0000000     0.0000000     0.0000000     0.0000000     0.0000000     0.0000000
     0.0000000     0.0000000     0.0000000     0.0000000     0.0000000     0.0000000     0.0000000
     0.0000000     0.0000000     0.0000000     0.0000000     0.0000000     0.0000000     0.0000000

 Ion:    3  E_soc:     -0.1466265
 l=   1
     0.0000000    -0.0245002    -0.0226593
    -0.0245002     0.0000000    -0.0264687
    -0.0226593    -0.0264687     0.0000000
 l=   2
     0.0000000    -0.0000031     0.0000000    -0.0000711     0.0001062
    -0.0000031     0.0000000     0.0000617     0.0000200     0.0000514
     0.0000000     0.0000617     0.0000000     0.0000625     0.0000000
    -0.0000711     0.0000200     0.0000625     0.0000000     0.0000874
     0.0001062     0.0000514     0.0000000     0.0000874     0.0000000
 l=   3
     0.0000000     0.0000000     0.0000000     0.0000000     0.0000000     0.0000000     0.0000000
     0.0000000     0.0000000     0.0000000     0.0000000     0.0000000     0.0000000     0.0000000
     0.0000000     0.0000000     0.0000000     0.0000000     0.0000000     0.0000000     0.0000000
     0.0000000     0.0000000     0.0000000     0.0000000     0.0000000     0.0000000     0.0000000
     0.0000000     0.0000000     0.0000000     0.0000000     0.0000000     0.0000000     0.0000000
     0.0000000     0.0000000     0.0000000     0.0000000     0.0000000     0.0000000     0.0000000
     0.0000000     0.0000000     0.0000000     0.0000000     0.0000000     0.0000000     0.0000000

 Ion:    4  E_soc:     -0.1998702
 l=   1
     0.0000000    -0.0286274    -0.0334539
    -0.0286274     0.0000000    -0.0379750
    -0.0334539    -0.0379750     0.0000000
 l=   2
     0.0000000    -0.0000081     0.0000000    -0.0000040     0.0000195
    -0.0000081     0.0000000     0.0000437     0.0000071     0.0000287
     0.0000000     0.0000437     0.0000000    -0.0000019     0.0000000
    -0.0000040     0.0000071    -0.0000019     0.0000000     0.0000362
     0.0000195     0.0000287     0.0000000     0.0000362     0.0000000
 l=   3
     0.0000000     0.0000000     0.0000000     0.0000000     0.0000000     0.0000000     0.0000000
     0.0000000     0.0000000     0.0000000     0.0000000     0.0000000     0.0000000     0.0000000
     0.0000000     0.0000000     0.0000000     0.0000000     0.0000000     0.0000000     0.0000000
     0.0000000     0.0000000     0.0000000     0.0000000     0.0000000     0.0000000     0.0000000
     0.0000000     0.0000000     0.0000000     0.0000000     0.0000000     0.0000000     0.0000000
     0.0000000     0.0000000     0.0000000     0.0000000     0.0000000     0.0000000     0.0000000
     0.0000000     0.0000000     0.0000000     0.0000000     0.0000000     0.0000000     0.0000000

 Ion:    5  E_soc:     -0.1998702
 l=   1
     0.0000000    -0.0286274    -0.0334539
    -0.0286274     0.0000000    -0.0379750
    -0.0334539    -0.0379750     0.0000000
 l=   2
     0.0000000    -0.0000081     0.0000000    -0.0000040     0.0000195
    -0.0000081     0.0000000     0.0000437     0.0000071     0.0000287
     0.0000000     0.0000437     0.0000000    -0.0000019     0.0000000
    -0.0000040     0.0000071    -0.0000019     0.0000000     0.0000362
     0.0000195     0.0000287     0.0000000     0.0000362     0.0000000
 l=   3
     0.0000000     0.0000000     0.0000000     0.0000000     0.0000000     0.0000000     0.0000000
     0.0000000     0.0000000     0.0000000     0.0000000     0.0000000     0.0000000     0.0000000
     0.0000000     0.0000000     0.0000000     0.0000000     0.0000000     0.0000000     0.0000000
     0.0000000     0.0000000     0.0000000     0.0000000     0.0000000     0.0000000     0.0000000
     0.0000000     0.0000000     0.0000000     0.0000000     0.0000000     0.0000000     0.0000000
     0.0000000     0.0000000     0.0000000     0.0000000     0.0000000     0.0000000     0.0000000
     0.0000000     0.0000000     0.0000000     0.0000000     0.0000000     0.0000000     0.0000000

 total amount of memory used by VASP MPI-rank0  1771383. kBytes
=======================================================================

   base      :      30000. kBytes
   nonl-proj :     122312. kBytes
   fftplans  :     182239. kBytes
   grid      :     180182. kBytes
   one-center:         97. kBytes
   wavefun   :    1256553. kBytes

  
  
 General timing and accounting informations for this job:
 ========================================================
  
                  Total CPU time used (sec):    10185.708
                            User time (sec):    10023.679
                          System time (sec):      162.030
                         Elapsed time (sec):    10786.749
  
                   Maximum memory used (kb):     2145776.
                   Average memory used (kb):           0.
  
                          Minor page faults:     16440968
                          Major page faults:            0
                 Voluntary context switches:        13346
