<?xml version="1.0" encoding="ISO-8859-1"?>
<modeling>
 <generator>
  <i name="program" type="string">vasp </i>
  <i name="version" type="string">5.4.4.18Apr17-6-g9f103f2a35  </i>
  <i name="subversion" type="string">(build Mar 20 2018 18:07:30) complex            parallel </i>
  <i name="platform" type="string">LinuxGNU </i>
  <i name="date" type="string">2020 07 12 </i>
  <i name="time" type="string">16:46:34 </i>
 </generator>
 <incar>
  <i type="string" name="SYSTEM"> BiTe</i>
  <i type="int" name="ISTART">     1</i>
  <i type="string" name="PREC">accurate</i>
  <i type="string" name="ALGO"> A</i>
  <i type="logical" name="ADDGRID"> T  </i>
  <i type="logical" name="LSORBIT"> T  </i>
  <i type="int" name="ISPIN">     1</i>
  <i type="int" name="ICHARG">    11</i>
  <i type="int" name="IBRION">    -1</i>
  <i name="EDIFF">      0.00000010</i>
  <i name="EDIFFG">     -0.00100000</i>
  <i type="int" name="NSW">     0</i>
  <i type="int" name="ISYM">    -1</i>
  <i name="ENCUT">    600.00000000</i>
  <i type="int" name="NBANDS">    88</i>
  <i type="logical" name="LREAL"> F  </i>
  <i type="logical" name="LPLANE"> T  </i>
  <i type="int" name="ISMEAR">     0</i>
  <i name="SIGMA">      0.01000000</i>
  <i type="int" name="LMAXMIX">     4</i>
  <i type="logical" name="LWAVE"> F  </i>
  <i type="logical" name="LCHARG"> F  </i>
  <i type="logical" name="GGA_COMPAT"> F  </i>
  <v type="int" name="KPOINT_BSE">    -1     0     0     0</v>
 </incar>
 <structure name="primitive_cell" >
  <crystal>
   <varray name="basis" >
    <v>      10.26342645      -2.21881605       0.00000000 </v>
    <v>      10.26342645       2.21881605       0.00000000 </v>
    <v>       9.78374798       0.00000000       3.81304899 </v>
   </varray>
   <i name="volume">    173.66650063 </i>
   <varray name="rec_basis" >
    <v>       0.04871667      -0.22534540      -0.12500014 </v>
    <v>       0.04871667       0.22534540      -0.12500014 </v>
    <v>      -0.00000000       0.00000000       0.26225732 </v>
   </varray>
  </crystal>
  <varray name="positions" >
   <v>       0.39959548       0.39959548       0.39959548 </v>
   <v>      -0.21094281      -0.21094281      -0.21094281 </v>
   <v>       0.00000000       0.00000000       0.00000000 </v>
   <v>      -0.39959548      -0.39959548      -0.39959548 </v>
   <v>       0.21094281       0.21094281       0.21094281 </v>
  </varray>
 </structure>
 <varray name="primitive_index" >
  <v type="int" >        1 </v>
  <v type="int" >        5 </v>
  <v type="int" >        3 </v>
  <v type="int" >        2 </v>
  <v type="int" >        4 </v>
 </varray>
 <kpoints>
  <varray name="kpointlist" >
   <v>       0.82271700       0.33864100       0.33864100 </v>
   <v>       0.80214900       0.33017500       0.33017500 </v>
   <v>       0.78158200       0.32170900       0.32170900 </v>
   <v>       0.76101400       0.31324300       0.31324300 </v>
   <v>       0.74044600       0.30477700       0.30477700 </v>
   <v>       0.71987800       0.29631100       0.29631100 </v>
   <v>       0.69931000       0.28784500       0.28784500 </v>
   <v>       0.67874200       0.27937900       0.27937900 </v>
   <v>       0.65817400       0.27091300       0.27091300 </v>
   <v>       0.63760600       0.26244700       0.26244700 </v>
   <v>       0.61703800       0.25398100       0.25398100 </v>
   <v>       0.59647000       0.24551500       0.24551500 </v>
   <v>       0.57590200       0.23704900       0.23704900 </v>
   <v>       0.55533400       0.22858300       0.22858300 </v>
   <v>       0.53476600       0.22011700       0.22011700 </v>
   <v>       0.51419800       0.21165100       0.21165100 </v>
   <v>       0.49363000       0.20318500       0.20318500 </v>
   <v>       0.47306300       0.19471900       0.19471900 </v>
   <v>       0.45249500       0.18625300       0.18625300 </v>
   <v>       0.43192700       0.17778700       0.17778700 </v>
   <v>       0.41135900       0.16932100       0.16932100 </v>
   <v>       0.39079100       0.16085500       0.16085500 </v>
   <v>       0.37022300       0.15238900       0.15238900 </v>
   <v>       0.34965500       0.14392300       0.14392300 </v>
   <v>       0.32908700       0.13545700       0.13545700 </v>
   <v>       0.30851900       0.12699000       0.12699000 </v>
   <v>       0.28795100       0.11852400       0.11852400 </v>
   <v>       0.26738300       0.11005800       0.11005800 </v>
   <v>       0.24681500       0.10159200       0.10159200 </v>
   <v>       0.22624700       0.09312600       0.09312600 </v>
   <v>       0.20567900       0.08466000       0.08466000 </v>
   <v>       0.18511100       0.07619400       0.07619400 </v>
   <v>       0.16454300       0.06772800       0.06772800 </v>
   <v>       0.14397600       0.05926200       0.05926200 </v>
   <v>       0.12340800       0.05079600       0.05079600 </v>
   <v>       0.10284000       0.04233000       0.04233000 </v>
   <v>       0.08227200       0.03386400       0.03386400 </v>
   <v>       0.06170400       0.02539800       0.02539800 </v>
   <v>       0.04113600       0.01693200       0.01693200 </v>
   <v>       0.02056800       0.00846600       0.00846600 </v>
   <v>      -0.00000000       0.00000000       0.00000000 </v>
   <v>       0.01250000       0.01250000       0.01250000 </v>
   <v>       0.02500000       0.02500000       0.02500000 </v>
   <v>       0.03750000       0.03750000       0.03750000 </v>
   <v>       0.05000000       0.05000000       0.05000000 </v>
   <v>       0.06250000       0.06250000       0.06250000 </v>
   <v>       0.07500000       0.07500000       0.07500000 </v>
   <v>       0.08750000       0.08750000       0.08750000 </v>
   <v>       0.10000000       0.10000000       0.10000000 </v>
   <v>       0.11250000       0.11250000       0.11250000 </v>
   <v>       0.12500000       0.12500000       0.12500000 </v>
   <v>       0.13750000       0.13750000       0.13750000 </v>
   <v>       0.15000000       0.15000000       0.15000000 </v>
   <v>       0.16250000       0.16250000       0.16250000 </v>
   <v>       0.17500000       0.17500000       0.17500000 </v>
   <v>       0.18750000       0.18750000       0.18750000 </v>
   <v>       0.20000000       0.20000000       0.20000000 </v>
   <v>       0.21250000       0.21250000       0.21250000 </v>
   <v>       0.22500000       0.22500000       0.22500000 </v>
   <v>       0.23750000       0.23750000       0.23750000 </v>
   <v>       0.25000000       0.25000000       0.25000000 </v>
   <v>       0.26250000       0.26250000       0.26250000 </v>
   <v>       0.27500000       0.27500000       0.27500000 </v>
   <v>       0.28750000       0.28750000       0.28750000 </v>
   <v>       0.30000000       0.30000000       0.30000000 </v>
   <v>       0.31250000       0.31250000       0.31250000 </v>
   <v>       0.32500000       0.32500000       0.32500000 </v>
   <v>       0.33750000       0.33750000       0.33750000 </v>
   <v>       0.35000000       0.35000000       0.35000000 </v>
   <v>       0.36250000       0.36250000       0.36250000 </v>
   <v>       0.37500000       0.37500000       0.37500000 </v>
   <v>       0.38750000       0.38750000       0.38750000 </v>
   <v>       0.40000000       0.40000000       0.40000000 </v>
   <v>       0.41250000       0.41250000       0.41250000 </v>
   <v>       0.42500000       0.42500000       0.42500000 </v>
   <v>       0.43750000       0.43750000       0.43750000 </v>
   <v>       0.45000000       0.45000000       0.45000000 </v>
   <v>       0.46250000       0.46250000       0.46250000 </v>
   <v>       0.47500000       0.47500000       0.47500000 </v>
   <v>       0.48750000       0.48750000       0.48750000 </v>
   <v>       0.50000000       0.50000000       0.50000000 </v>
   <v>       0.50000000       0.50000000       0.48750000 </v>
   <v>       0.50000000       0.50000000       0.47500000 </v>
   <v>       0.50000000       0.50000000       0.46250000 </v>
   <v>       0.50000000       0.50000000       0.45000000 </v>
   <v>       0.50000000       0.50000000       0.43750000 </v>
   <v>       0.50000000       0.50000000       0.42500000 </v>
   <v>       0.50000000       0.50000000       0.41250000 </v>
   <v>       0.50000000       0.50000000       0.40000000 </v>
   <v>       0.50000000       0.50000000       0.38750000 </v>
   <v>       0.50000000       0.50000000       0.37500000 </v>
   <v>       0.50000000       0.50000000       0.36250000 </v>
   <v>       0.50000000       0.50000000       0.35000000 </v>
   <v>       0.50000000       0.50000000       0.33750000 </v>
   <v>       0.50000000       0.50000000       0.32500000 </v>
   <v>       0.50000000       0.50000000       0.31250000 </v>
   <v>       0.50000000       0.50000000       0.30000000 </v>
   <v>       0.50000000       0.50000000       0.28750000 </v>
   <v>       0.50000000       0.50000000       0.27500000 </v>
   <v>       0.50000000       0.50000000       0.26250000 </v>
   <v>       0.50000000       0.50000000       0.25000000 </v>
   <v>       0.50000000       0.50000000       0.23750000 </v>
   <v>       0.50000000       0.50000000       0.22500000 </v>
   <v>       0.50000000       0.50000000       0.21250000 </v>
   <v>       0.50000000       0.50000000       0.20000000 </v>
   <v>       0.50000000       0.50000000       0.18750000 </v>
   <v>       0.50000000       0.50000000       0.17500000 </v>
   <v>       0.50000000       0.50000000       0.16250000 </v>
   <v>       0.50000000       0.50000000       0.15000000 </v>
   <v>       0.50000000       0.50000000       0.13750000 </v>
   <v>       0.50000000       0.50000000       0.12500000 </v>
   <v>       0.50000000       0.50000000       0.11250000 </v>
   <v>       0.50000000       0.50000000       0.10000000 </v>
   <v>       0.50000000       0.50000000       0.08750000 </v>
   <v>       0.50000000       0.50000000       0.07500000 </v>
   <v>       0.50000000       0.50000000       0.06250000 </v>
   <v>       0.50000000       0.50000000       0.05000000 </v>
   <v>       0.50000000       0.50000000       0.03750000 </v>
   <v>       0.50000000       0.50000000       0.02500000 </v>
   <v>       0.50000000       0.50000000       0.01250000 </v>
   <v>       0.50000000       0.50000000       0.00000000 </v>
   <v>       0.48750000       0.48750000       0.00000000 </v>
   <v>       0.47500000       0.47500000       0.00000000 </v>
   <v>       0.46250000       0.46250000       0.00000000 </v>
   <v>       0.45000000       0.45000000       0.00000000 </v>
   <v>       0.43750000       0.43750000       0.00000000 </v>
   <v>       0.42500000       0.42500000       0.00000000 </v>
   <v>       0.41250000       0.41250000       0.00000000 </v>
   <v>       0.40000000       0.40000000       0.00000000 </v>
   <v>       0.38750000       0.38750000       0.00000000 </v>
   <v>       0.37500000       0.37500000       0.00000000 </v>
   <v>       0.36250000       0.36250000       0.00000000 </v>
   <v>       0.35000000       0.35000000       0.00000000 </v>
   <v>       0.33750000       0.33750000       0.00000000 </v>
   <v>       0.32500000       0.32500000       0.00000000 </v>
   <v>       0.31250000       0.31250000       0.00000000 </v>
   <v>       0.30000000       0.30000000       0.00000000 </v>
   <v>       0.28750000       0.28750000       0.00000000 </v>
   <v>       0.27500000       0.27500000       0.00000000 </v>
   <v>       0.26250000       0.26250000       0.00000000 </v>
   <v>       0.25000000       0.25000000       0.00000000 </v>
   <v>       0.23750000       0.23750000       0.00000000 </v>
   <v>       0.22500000       0.22500000       0.00000000 </v>
   <v>       0.21250000       0.21250000       0.00000000 </v>
   <v>       0.20000000       0.20000000       0.00000000 </v>
   <v>       0.18750000       0.18750000       0.00000000 </v>
   <v>       0.17500000       0.17500000       0.00000000 </v>
   <v>       0.16250000       0.16250000       0.00000000 </v>
   <v>       0.15000000       0.15000000       0.00000000 </v>
   <v>       0.13750000       0.13750000       0.00000000 </v>
   <v>       0.12500000       0.12500000       0.00000000 </v>
   <v>       0.11250000       0.11250000       0.00000000 </v>
   <v>       0.10000000       0.10000000       0.00000000 </v>
   <v>       0.08750000       0.08750000       0.00000000 </v>
   <v>       0.07500000       0.07500000       0.00000000 </v>
   <v>       0.06250000       0.06250000       0.00000000 </v>
   <v>       0.05000000       0.05000000       0.00000000 </v>
   <v>       0.03750000       0.03750000       0.00000000 </v>
   <v>       0.02500000       0.02500000       0.00000000 </v>
   <v>       0.01250000       0.01250000       0.00000000 </v>
   <v>      -0.00000000       0.00000000       0.00000000 </v>
   <v>       0.01653400       0.01048300       0.01048300 </v>
   <v>       0.03306800       0.02096600       0.02096600 </v>
   <v>       0.04960200       0.03144900       0.03144900 </v>
   <v>       0.06613600       0.04193200       0.04193200 </v>
   <v>       0.08267000       0.05241500       0.05241500 </v>
   <v>       0.09920400       0.06289800       0.06289800 </v>
   <v>       0.11573800       0.07338100       0.07338100 </v>
   <v>       0.13227200       0.08386400       0.08386400 </v>
   <v>       0.14880600       0.09434700       0.09434700 </v>
   <v>       0.16534000       0.10483000       0.10483000 </v>
   <v>       0.18187400       0.11531300       0.11531300 </v>
   <v>       0.19840800       0.12579600       0.12579600 </v>
   <v>       0.21494200       0.13627900       0.13627900 </v>
   <v>       0.23147600       0.14676200       0.14676200 </v>
   <v>       0.24801000       0.15724500       0.15724500 </v>
   <v>       0.26454300       0.16772800       0.16772800 </v>
   <v>       0.28107700       0.17821100       0.17821100 </v>
   <v>       0.29761100       0.18869400       0.18869400 </v>
   <v>       0.31414500       0.19917700       0.19917700 </v>
   <v>       0.33067900       0.20966000       0.20966000 </v>
   <v>       0.34721300       0.22014300       0.22014300 </v>
   <v>       0.36374700       0.23062600       0.23062600 </v>
   <v>       0.38028100       0.24110900       0.24110900 </v>
   <v>       0.39681500       0.25159200       0.25159200 </v>
   <v>       0.41334900       0.26207500       0.26207500 </v>
   <v>       0.42988300       0.27255800       0.27255800 </v>
   <v>       0.44641700       0.28304100       0.28304100 </v>
   <v>       0.46295100       0.29352400       0.29352400 </v>
   <v>       0.47948500       0.30400700       0.30400700 </v>
   <v>       0.49601900       0.31449000       0.31449000 </v>
   <v>       0.51255300       0.32497400       0.32497400 </v>
   <v>       0.52908700       0.33545700       0.33545700 </v>
   <v>       0.54562100       0.34594000       0.34594000 </v>
   <v>       0.56215500       0.35642300       0.35642300 </v>
   <v>       0.57868900       0.36690600       0.36690600 </v>
   <v>       0.59522300       0.37738900       0.37738900 </v>
   <v>       0.61175700       0.38787200       0.38787200 </v>
   <v>       0.62829100       0.39835500       0.39835500 </v>
   <v>       0.64482500       0.40883800       0.40883800 </v>
   <v>       0.66135900       0.41932100       0.41932100 </v>
  </varray>
  <varray name="weights" >
   <v>       0.00497512 </v>
   <v>       0.00497512 </v>
   <v>       0.00497512 </v>
   <v>       0.00497512 </v>
   <v>       0.00497512 </v>
   <v>       0.00497512 </v>
   <v>       0.00497512 </v>
   <v>       0.00497512 </v>
   <v>       0.00497512 </v>
   <v>       0.00497512 </v>
   <v>       0.00497512 </v>
   <v>       0.00497512 </v>
   <v>       0.00497512 </v>
   <v>       0.00497512 </v>
   <v>       0.00497512 </v>
   <v>       0.00497512 </v>
   <v>       0.00497512 </v>
   <v>       0.00497512 </v>
   <v>       0.00497512 </v>
   <v>       0.00497512 </v>
   <v>       0.00497512 </v>
   <v>       0.00497512 </v>
   <v>       0.00497512 </v>
   <v>       0.00497512 </v>
   <v>       0.00497512 </v>
   <v>       0.00497512 </v>
   <v>       0.00497512 </v>
   <v>       0.00497512 </v>
   <v>       0.00497512 </v>
   <v>       0.00497512 </v>
   <v>       0.00497512 </v>
   <v>       0.00497512 </v>
   <v>       0.00497512 </v>
   <v>       0.00497512 </v>
   <v>       0.00497512 </v>
   <v>       0.00497512 </v>
   <v>       0.00497512 </v>
   <v>       0.00497512 </v>
   <v>       0.00497512 </v>
   <v>       0.00497512 </v>
   <v>       0.00497512 </v>
   <v>       0.00497512 </v>
   <v>       0.00497512 </v>
   <v>       0.00497512 </v>
   <v>       0.00497512 </v>
   <v>       0.00497512 </v>
   <v>       0.00497512 </v>
   <v>       0.00497512 </v>
   <v>       0.00497512 </v>
   <v>       0.00497512 </v>
   <v>       0.00497512 </v>
   <v>       0.00497512 </v>
   <v>       0.00497512 </v>
   <v>       0.00497512 </v>
   <v>       0.00497512 </v>
   <v>       0.00497512 </v>
   <v>       0.00497512 </v>
   <v>       0.00497512 </v>
   <v>       0.00497512 </v>
   <v>       0.00497512 </v>
   <v>       0.00497512 </v>
   <v>       0.00497512 </v>
   <v>       0.00497512 </v>
   <v>       0.00497512 </v>
   <v>       0.00497512 </v>
   <v>       0.00497512 </v>
   <v>       0.00497512 </v>
   <v>       0.00497512 </v>
   <v>       0.00497512 </v>
   <v>       0.00497512 </v>
   <v>       0.00497512 </v>
   <v>       0.00497512 </v>
   <v>       0.00497512 </v>
   <v>       0.00497512 </v>
   <v>       0.00497512 </v>
   <v>       0.00497512 </v>
   <v>       0.00497512 </v>
   <v>       0.00497512 </v>
   <v>       0.00497512 </v>
   <v>       0.00497512 </v>
   <v>       0.00497512 </v>
   <v>       0.00497512 </v>
   <v>       0.00497512 </v>
   <v>       0.00497512 </v>
   <v>       0.00497512 </v>
   <v>       0.00497512 </v>
   <v>       0.00497512 </v>
   <v>       0.00497512 </v>
   <v>       0.00497512 </v>
   <v>       0.00497512 </v>
   <v>       0.00497512 </v>
   <v>       0.00497512 </v>
   <v>       0.00497512 </v>
   <v>       0.00497512 </v>
   <v>       0.00497512 </v>
   <v>       0.00497512 </v>
   <v>       0.00497512 </v>
   <v>       0.00497512 </v>
   <v>       0.00497512 </v>
   <v>       0.00497512 </v>
   <v>       0.00497512 </v>
   <v>       0.00497512 </v>
   <v>       0.00497512 </v>
   <v>       0.00497512 </v>
   <v>       0.00497512 </v>
   <v>       0.00497512 </v>
   <v>       0.00497512 </v>
   <v>       0.00497512 </v>
   <v>       0.00497512 </v>
   <v>       0.00497512 </v>
   <v>       0.00497512 </v>
   <v>       0.00497512 </v>
   <v>       0.00497512 </v>
   <v>       0.00497512 </v>
   <v>       0.00497512 </v>
   <v>       0.00497512 </v>
   <v>       0.00497512 </v>
   <v>       0.00497512 </v>
   <v>       0.00497512 </v>
   <v>       0.00497512 </v>
   <v>       0.00497512 </v>
   <v>       0.00497512 </v>
   <v>       0.00497512 </v>
   <v>       0.00497512 </v>
   <v>       0.00497512 </v>
   <v>       0.00497512 </v>
   <v>       0.00497512 </v>
   <v>       0.00497512 </v>
   <v>       0.00497512 </v>
   <v>       0.00497512 </v>
   <v>       0.00497512 </v>
   <v>       0.00497512 </v>
   <v>       0.00497512 </v>
   <v>       0.00497512 </v>
   <v>       0.00497512 </v>
   <v>       0.00497512 </v>
   <v>       0.00497512 </v>
   <v>       0.00497512 </v>
   <v>       0.00497512 </v>
   <v>       0.00497512 </v>
   <v>       0.00497512 </v>
   <v>       0.00497512 </v>
   <v>       0.00497512 </v>
   <v>       0.00497512 </v>
   <v>       0.00497512 </v>
   <v>       0.00497512 </v>
   <v>       0.00497512 </v>
   <v>       0.00497512 </v>
   <v>       0.00497512 </v>
   <v>       0.00497512 </v>
   <v>       0.00497512 </v>
   <v>       0.00497512 </v>
   <v>       0.00497512 </v>
   <v>       0.00497512 </v>
   <v>       0.00497512 </v>
   <v>       0.00497512 </v>
   <v>       0.00497512 </v>
   <v>       0.00497512 </v>
   <v>       0.00497512 </v>
   <v>       0.00497512 </v>
   <v>       0.00497512 </v>
   <v>       0.00497512 </v>
   <v>       0.00497512 </v>
   <v>       0.00497512 </v>
   <v>       0.00497512 </v>
   <v>       0.00497512 </v>
   <v>       0.00497512 </v>
   <v>       0.00497512 </v>
   <v>       0.00497512 </v>
   <v>       0.00497512 </v>
   <v>       0.00497512 </v>
   <v>       0.00497512 </v>
   <v>       0.00497512 </v>
   <v>       0.00497512 </v>
   <v>       0.00497512 </v>
   <v>       0.00497512 </v>
   <v>       0.00497512 </v>
   <v>       0.00497512 </v>
   <v>       0.00497512 </v>
   <v>       0.00497512 </v>
   <v>       0.00497512 </v>
   <v>       0.00497512 </v>
   <v>       0.00497512 </v>
   <v>       0.00497512 </v>
   <v>       0.00497512 </v>
   <v>       0.00497512 </v>
   <v>       0.00497512 </v>
   <v>       0.00497512 </v>
   <v>       0.00497512 </v>
   <v>       0.00497512 </v>
   <v>       0.00497512 </v>
   <v>       0.00497512 </v>
   <v>       0.00497512 </v>
   <v>       0.00497512 </v>
   <v>       0.00497512 </v>
   <v>       0.00497512 </v>
   <v>       0.00497512 </v>
   <v>       0.00497512 </v>
   <v>       0.00497512 </v>
   <v>       0.00497512 </v>
   <v>       0.00497512 </v>
  </varray>
 </kpoints>
 <parameters>
  <separator name="general" >
   <i type="string" name="SYSTEM">BiTe</i>
   <i type="logical" name="LCOMPAT"> F  </i>
  </separator>
  <separator name="electronic" >
   <i type="string" name="PREC">accura</i>
   <i name="ENMAX">    600.00000000</i>
   <i name="ENAUG">    368.79200000</i>
   <i name="EDIFF">      0.00000010</i>
   <i type="int" name="IALGO">    58</i>
   <i type="int" name="IWAVPR">    10</i>
   <i type="int" name="NBANDS">    88</i>
   <i name="NELECT">     28.00000000</i>
   <i type="int" name="TURBO">     0</i>
   <i type="int" name="IRESTART">     0</i>
   <i type="int" name="NREBOOT">     0</i>
   <i type="int" name="NMIN">     0</i>
   <i name="EREF">      0.00000000</i>
   <separator name="electronic smearing" >
    <i type="int" name="ISMEAR">     0</i>
    <i name="SIGMA">      0.01000000</i>
    <i name="KSPACING">      0.50000000</i>
    <i type="logical" name="KGAMMA"> T  </i>
   </separator>
   <separator name="electronic projectors" >
    <i type="logical" name="LREAL"> F  </i>
    <v name="ROPT">      0.00000000      0.00000000</v>
    <i type="int" name="LMAXPAW">  -100</i>
    <i type="int" name="LMAXMIX">     4</i>
    <i type="logical" name="NLSPLINE"> F  </i>
   </separator>
   <separator name="electronic startup" >
    <i type="int" name="ISTART">     0</i>
    <i type="int" name="ICHARG">    11</i>
    <i type="int" name="INIWAV">     1</i>
   </separator>
   <separator name="electronic spin" >
    <i type="int" name="ISPIN">     1</i>
    <i type="logical" name="LNONCOLLINEAR"> T  </i>
    <v name="MAGMOM">      1.00000000      1.00000000      1.00000000      1.00000000      1.00000000      1.00000000      1.00000000      1.00000000      1.00000000      1.00000000      1.00000000      1.00000000      1.00000000      1.00000000      1.00000000</v>
    <i name="NUPDOWN">     -1.00000000</i>
    <i type="logical" name="LSORBIT"> T  </i>
    <v name="SAXIS">      0.00000000      0.00000000      1.00000000</v>
    <i type="logical" name="LSPIRAL"> F  </i>
    <v name="QSPIRAL">      0.00000000      0.00000000      0.00000000</v>
    <i type="logical" name="LZEROZ"> F  </i>
   </separator>
   <separator name="electronic exchange-correlation" >
    <i type="logical" name="LASPH"> F  </i>
    <i type="logical" name="LMETAGGA"> F  </i>
   </separator>
   <separator name="electronic convergence" >
    <i type="int" name="NELM">    60</i>
    <i type="int" name="NELMDL">     0</i>
    <i type="int" name="NELMIN">     2</i>
    <i name="ENINI">    600.00000000</i>
    <separator name="electronic convergence detail" >
     <i type="logical" name="LDIAG"> T  </i>
     <i type="logical" name="LSUBROT"> F  </i>
     <i name="WEIMIN">      0.00000000</i>
     <i name="EBREAK">      0.00000000</i>
     <i name="DEPER">      0.30000000</i>
     <i type="int" name="NRMM">     4</i>
     <i name="TIME">      0.40000000</i>
    </separator>
   </separator>
   <separator name="electronic mixer" >
    <i name="AMIX">      0.40000000</i>
    <i name="BMIX">      1.00000000</i>
    <i name="AMIN">      0.10000000</i>
    <i name="AMIX_MAG">      1.60000000</i>
    <i name="BMIX_MAG">      1.00000000</i>
    <separator name="electronic mixer details" >
     <i type="int" name="IMIX">     4</i>
     <i type="logical" name="MIXFIRST"> F  </i>
     <i type="int" name="MAXMIX">   -45</i>
     <i name="WC">    100.00000000</i>
     <i type="int" name="INIMIX">     1</i>
     <i type="int" name="MIXPRE">     1</i>
     <i type="int" name="MREMOVE">     5</i>
    </separator>
   </separator>
   <separator name="electronic dipolcorrection" >
    <i type="logical" name="LDIPOL"> F  </i>
    <i type="logical" name="LMONO"> F  </i>
    <i type="int" name="IDIPOL">     0</i>
    <i name="EPSILON">      1.00000000</i>
    <v name="DIPOL">   -100.00000000   -100.00000000   -100.00000000</v>
    <i name="EFIELD">      0.00000000</i>
   </separator>
  </separator>
  <separator name="grids" >
   <i type="int" name="NGX">    84</i>
   <i type="int" name="NGY">    84</i>
   <i type="int" name="NGZ">    84</i>
   <i type="int" name="NGXF">   168</i>
   <i type="int" name="NGYF">   168</i>
   <i type="int" name="NGZF">   168</i>
   <i type="logical" name="ADDGRID"> T  </i>
  </separator>
  <separator name="ionic" >
   <i type="int" name="NSW">     0</i>
   <i type="int" name="IBRION">    -1</i>
   <i type="int" name="MDALGO">     0</i>
   <i type="int" name="ISIF">     2</i>
   <i name="PSTRESS">      0.00000000</i>
   <i name="EDIFFG">     -0.00100000</i>
   <i type="int" name="NFREE">     0</i>
   <i name="POTIM">      0.50000000</i>
   <i name="SMASS">     -3.00000000</i>
   <i name="SCALEE">      1.00000000</i>
  </separator>
  <separator name="ionic md" >
   <i name="TEBEG">      0.00010000</i>
   <i name="TEEND">      0.00010000</i>
   <i type="int" name="NBLOCK">     1</i>
   <i type="int" name="KBLOCK">     1</i>
   <i type="int" name="NPACO">   256</i>
   <i name="APACO">     16.00000000</i>
  </separator>
  <separator name="symmetry" >
   <i type="int" name="ISYM">    -1</i>
   <i name="SYMPREC">      0.00001000</i>
  </separator>
  <separator name="dos" >
   <i type="int" name="LORBIT">     0</i>
   <v name="RWIGS">     -1.00000000     -1.00000000</v>
   <i type="int" name="NEDOS">   301</i>
   <i name="EMIN">     10.00000000</i>
   <i name="EMAX">    -10.00000000</i>
   <i name="EFERMI">      0.00000000</i>
  </separator>
  <separator name="writing" >
   <i type="int" name="NWRITE">     2</i>
   <i type="logical" name="LWAVE"> F  </i>
   <i type="logical" name="LDOWNSAMPLE"> F  </i>
   <i type="logical" name="LCHARG"> F  </i>
   <i type="logical" name="LPARD"> F  </i>
   <i type="logical" name="LVTOT"> F  </i>
   <i type="logical" name="LVHAR"> F  </i>
   <i type="logical" name="LELF"> F  </i>
   <i type="logical" name="LOPTICS"> F  </i>
   <v name="STM">      0.00000000      0.00000000      0.00000000      0.00000000      0.00000000      0.00000000      0.00000000</v>
  </separator>
  <separator name="performance" >
   <i type="int" name="NPAR">     4</i>
   <i type="int" name="NSIM">     4</i>
   <i type="int" name="NBLK">    -1</i>
   <i type="logical" name="LPLANE"> T  </i>
   <i type="logical" name="LSCALAPACK"> T  </i>
   <i type="logical" name="LSCAAWARE"> F  </i>
   <i type="logical" name="LSCALU"> F  </i>
   <i type="logical" name="LASYNC"> F  </i>
   <i type="logical" name="LORBITALREAL"> F  </i>
  </separator>
  <separator name="miscellaneous" >
   <i type="int" name="IDIOT">     3</i>
   <i type="int" name="ISPECIAL">     0</i>
   <i type="logical" name="LMUSIC"> F  </i>
   <v name="POMASS">    208.98000000    127.60000000</v>
   <v name="DARWINR">      0.00000000      0.00000000</v>
   <v name="DARWINV">      1.00000000      1.00000000</v>
   <i type="logical" name="LCORR"> T  </i>
  </separator>
  <i type="logical" name="GGA_COMPAT"> F  </i>
  <i type="logical" name="LBERRY"> F  </i>
  <i type="int" name="ICORELEVEL">     0</i>
  <i type="logical" name="LDAU"> F  </i>
  <i type="int" name="I_CONSTRAINED_M">     0</i>
  <separator name="electronic exchange-correlation" >
   <i type="string" name="GGA">--</i>
   <i type="int" name="VOSKOWN">     0</i>
   <i type="logical" name="LHFCALC"> F  </i>
   <i type="string" name="PRECFOCK"></i>
   <i type="logical" name="LSYMGRAD"> F  </i>
   <i type="logical" name="LHFONE"> F  </i>
   <i type="logical" name="LRHFCALC"> F  </i>
   <i type="logical" name="LTHOMAS"> F  </i>
   <i type="logical" name="LMODELHF"> F  </i>
   <i name="ENCUT4O">     -1.00000000</i>
   <i type="int" name="EXXOEP">     0</i>
   <i type="int" name="FOURORBIT">     0</i>
   <i name="AEXX">      0.00000000</i>
   <i name="HFALPHA">      0.00000000</i>
   <i name="MCALPHA">      0.00000000</i>
   <i name="ALDAX">      1.00000000</i>
   <i name="AGGAX">      1.00000000</i>
   <i name="ALDAC">      1.00000000</i>
   <i name="AGGAC">      1.00000000</i>
   <i type="int" name="NKREDX">     1</i>
   <i type="int" name="NKREDY">     1</i>
   <i type="int" name="NKREDZ">     1</i>
   <i type="logical" name="SHIFTRED"> F  </i>
   <i type="logical" name="ODDONLY"> F  </i>
   <i type="logical" name="EVENONLY"> F  </i>
   <i type="int" name="LMAXFOCK">     0</i>
   <i type="int" name="NMAXFOCKAE">     0</i>
   <i type="logical" name="LFOCKAEDFT"> F  </i>
   <i name="HFSCREEN">      0.00000000</i>
   <i name="HFSCREENC">      0.00000000</i>
   <i type="int" name="NBANDSGWLOW">     0</i>
  </separator>
  <separator name="vdW DFT" >
   <i type="logical" name="LUSE_VDW"> F  </i>
   <i name="Zab_VDW">     -0.84910000</i>
   <i name="PARAM1">      0.12340000</i>
   <i name="PARAM2">      1.00000000</i>
   <i name="PARAM3">      0.00000000</i>
  </separator>
  <separator name="model GW" >
   <i type="int" name="MODEL_GW">     0</i>
   <i name="MODEL_EPS0">     20.83998008</i>
   <i name="MODEL_ALPHA">      1.00000000</i>
  </separator>
  <separator name="linear response parameters" >
   <i type="logical" name="LEPSILON"> F  </i>
   <i type="logical" name="LRPA"> F  </i>
   <i type="logical" name="LNABLA"> F  </i>
   <i type="logical" name="LVEL"> F  </i>
   <i type="int" name="KINTER">     0</i>
   <i name="CSHIFT">      0.10000000</i>
   <i name="OMEGAMAX">     -1.00000000</i>
   <i name="DEG_THRESHOLD">      0.00200000</i>
   <i name="RTIME">     -0.10000000</i>
   <i name="WPLASMAI">      0.00000000</i>
   <v name="DFIELD">      0.00000000      0.00000000      0.00000000</v>
   <v name="WPLASMA">      0.00000000      0.00000000      0.00000000      0.00000000      0.00000000      0.00000000      0.00000000      0.00000000      0.00000000</v>
  </separator>
  <separator name="orbital magnetization" >
   <i type="logical" name="NUCIND"> F  </i>
   <v name="MAGPOS">      0.00000000      0.00000000      0.00000000</v>
   <i type="logical" name="LNICSALL"> T  </i>
   <i type="logical" name="ORBITALMAG"> F  </i>
   <i type="logical" name="LMAGBLOCH"> F  </i>
   <i type="logical" name="LCHIMAG"> F  </i>
   <i type="logical" name="LGAUGE"> T  </i>
   <i type="int" name="MAGATOM">     0</i>
   <v name="MAGDIPOL">      0.00000000      0.00000000      0.00000000</v>
   <v name="AVECCONST">      0.00000000      0.00000000      0.00000000</v>
  </separator>
  <separator name="response functions" >
   <i type="logical" name="LADDER"> F  </i>
   <i type="logical" name="LRPAFORCE"> F  </i>
   <i type="logical" name="LFXC"> F  </i>
   <i type="logical" name="LHARTREE"> T  </i>
   <i type="int" name="IBSE">     0</i>
   <v type="int" name="KPOINT">    -1     0     0     0</v>
   <i type="logical" name="LTCTE"> F  </i>
   <i type="logical" name="LTETE"> F  </i>
   <i type="logical" name="LTRIPLET"> F  </i>
   <i type="logical" name="LFXCEPS"> F  </i>
   <i type="logical" name="LFXHEG"> F  </i>
   <i type="int" name="NATURALO">     2</i>
   <i type="logical" name="L2ORDER"> F  </i>
   <i type="logical" name="LMP2LT"> F  </i>
   <i type="logical" name="LUSEW"> F  </i>
   <i name="ENCUTGW">     -2.00000000</i>
   <i name="ENCUTGWSOFT">     -2.00000000</i>
   <i name="ENCUTLF">     -1.00000000</i>
   <i type="int" name="LMAXMP2">    -1</i>
   <i name="SCISSOR">      0.00000000</i>
   <i type="int" name="NOMEGA">     0</i>
   <i type="int" name="NOMEGAR">     0</i>
   <i type="int" name="NBANDSGW">    -1</i>
   <i type="int" name="NBANDSO">    -1</i>
   <i type="int" name="NBANDSV">    -1</i>
   <i type="int" name="NELM">     1</i>
   <i type="int" name="NELMHF">     1</i>
   <i type="int" name="DIM">     3</i>
   <i type="int" name="ANTIRES">     0</i>
   <i name="OMEGAMAX">    -30.00000000</i>
   <i name="OMEGAMIN">    -30.00000000</i>
   <i name="OMEGATL">   -200.00000000</i>
   <i type="int" name="OMEGAGRID">   140</i>
   <i name="CSHIFT">     -0.10000000</i>
   <i type="logical" name="SELFENERGY"> F  </i>
   <i type="logical" name="LSPECTRAL"> F  </i>
   <i type="logical" name="LSPECTRALGW"> F  </i>
   <i type="logical" name="LSINGLES"> F  </i>
   <i type="logical" name="LFERMIGW"> F  </i>
   <i type="logical" name="ODDONLYGW"> F  </i>
   <i type="logical" name="EVENONLYGW"> F  </i>
   <i type="int" name="NKREDLFX">     1</i>
   <i type="int" name="NKREDLFY">     1</i>
   <i type="int" name="NKREDLFZ">     1</i>
   <i type="int" name="MAXMEM">  2800</i>
   <i type="int" name="TELESCOPE">     0</i>
   <i type="int" name="TAUPAR">     1</i>
   <i type="int" name="OMEGAPAR">    -1</i>
   <i name="LAMBDA">      1.00000000</i>
  </separator>
  <separator name="External order field" >
   <i name="OFIELD_KAPPA">      0.00000000</i>
   <v name="OFIELD_K">      0.00000000      0.00000000      0.00000000</v>
   <i name="OFIELD_Q6_NEAR">      0.00000000</i>
   <i name="OFIELD_Q6_FAR">      0.00000000</i>
   <i name="OFIELD_A">      0.00000000</i>
  </separator>
 </parameters>
 <atominfo>
  <atoms>       5 </atoms>
  <types>       2 </types>
  <array name="atoms" >
   <dimension dim="1">ion</dimension>
   <field type="string">element</field>
   <field type="int">atomtype</field>
   <set>
    <rc><c>Bi</c><c>   1</c></rc>
    <rc><c>Bi</c><c>   1</c></rc>
    <rc><c>Te</c><c>   2</c></rc>
    <rc><c>Te</c><c>   2</c></rc>
    <rc><c>Te</c><c>   2</c></rc>
   </set>
  </array>
  <array name="atomtypes" >
   <dimension dim="1">type</dimension>
   <field type="int">atomspertype</field>
   <field type="string">element</field>
   <field>mass</field>
   <field>valence</field>
   <field type="string">pseudopotential</field>
   <set>
    <rc><c>   2</c><c>Bi</c><c>    208.98000000</c><c>      5.00000000</c><c>  PAW_PBE Bi 08Apr2002                  </c></rc>
    <rc><c>   3</c><c>Te</c><c>    127.60000000</c><c>      6.00000000</c><c>  PAW_PBE Te 08Apr2002                  </c></rc>
   </set>
  </array>
 </atominfo>
 <structure name="initialpos" >
  <crystal>
   <varray name="basis" >
    <v>      10.26342645      -2.21881605       0.00000000 </v>
    <v>      10.26342645       2.21881605       0.00000000 </v>
    <v>       9.78374798       0.00000000       3.81304899 </v>
   </varray>
   <i name="volume">    173.66650063 </i>
   <varray name="rec_basis" >
    <v>       0.04871667      -0.22534540      -0.12500014 </v>
    <v>       0.04871667       0.22534540      -0.12500014 </v>
    <v>      -0.00000000       0.00000000       0.26225732 </v>
   </varray>
  </crystal>
  <varray name="positions" >
   <v>       0.39959548       0.39959548       0.39959548 </v>
   <v>       0.60040452       0.60040452       0.60040452 </v>
   <v>       0.00000000       0.00000000       0.00000000 </v>
   <v>       0.21094281       0.21094281       0.21094281 </v>
   <v>       0.78905719       0.78905719       0.78905719 </v>
  </varray>
 </structure>
 <calculation>
  <scstep>
   <time name="total">  760.39  760.52</time>
   <energy>
    <i name="alphaZ">      5.96247035 </i>
    <i name="ewald">   -980.81834700 </i>
    <i name="hartreedc">    -61.15400375 </i>
    <i name="XCdc">   -303.89343352 </i>
    <i name="pawpsdc">   1899.33427477 </i>
    <i name="pawaedc">  -1550.30480448 </i>
    <i name="eentropy">     -0.00013392 </i>
    <i name="bandstr">    147.61903194 </i>
    <i name="atom">    971.44149227 </i>
    <i name="e_fr_energy">    128.18654666 </i>
    <i name="e_wo_entrp">    128.18668058 </i>
    <i name="e_0_energy">    128.18661362 </i>
   </energy>
  </scstep>
  <scstep>
   <time name="total">  920.04  920.17</time>
   <energy>
    <i name="e_fr_energy">      1.28066895 </i>
    <i name="e_wo_entrp">      1.28072453 </i>
    <i name="e_0_energy">      1.28069674 </i>
   </energy>
  </scstep>
  <scstep>
   <time name="total">  812.22  891.48</time>
   <energy>
    <i name="e_fr_energy">    -10.19927244 </i>
    <i name="e_wo_entrp">    -10.19927244 </i>
    <i name="e_0_energy">    -10.19927244 </i>
   </energy>
  </scstep>
  <scstep>
   <time name="total">  770.27  903.65</time>
   <energy>
    <i name="e_fr_energy">    -10.50526011 </i>
    <i name="e_wo_entrp">    -10.50526011 </i>
    <i name="e_0_energy">    -10.50526011 </i>
   </energy>
  </scstep>
  <scstep>
   <time name="total">  758.52  887.28</time>
   <energy>
    <i name="e_fr_energy">    -10.51240742 </i>
    <i name="e_wo_entrp">    -10.51240742 </i>
    <i name="e_0_energy">    -10.51240742 </i>
   </energy>
  </scstep>
  <scstep>
   <time name="total">  614.63  721.09</time>
   <energy>
    <i name="e_fr_energy">    -10.51240742 </i>
    <i name="e_wo_entrp">    -10.51240742 </i>
    <i name="e_0_energy">    -10.51240742 </i>
   </energy>
  </scstep>
  <scstep>
   <time name="total">  627.31  721.31</time>
   <energy>
    <i name="e_fr_energy">    -10.51266522 </i>
    <i name="e_wo_entrp">    -10.51266522 </i>
    <i name="e_0_energy">    -10.51266522 </i>
   </energy>
  </scstep>
  <scstep>
   <time name="total">  714.81  729.05</time>
   <energy>
    <i name="e_fr_energy">    -10.51273635 </i>
    <i name="e_wo_entrp">    -10.51273635 </i>
    <i name="e_0_energy">    -10.51273635 </i>
   </energy>
  </scstep>
  <scstep>
   <time name="total">  727.59  761.57</time>
   <energy>
    <i name="e_fr_energy">    -10.51275916 </i>
    <i name="e_wo_entrp">    -10.51275916 </i>
    <i name="e_0_energy">    -10.51275916 </i>
   </energy>
  </scstep>
  <scstep>
   <time name="total">  852.48  852.56</time>
   <energy>
    <i name="e_fr_energy">    -10.51276090 </i>
    <i name="e_wo_entrp">    -10.51276090 </i>
    <i name="e_0_energy">    -10.51276090 </i>
   </energy>
  </scstep>
  <scstep>
   <time name="total">  972.27  975.40</time>
   <energy>
    <i name="e_fr_energy">    -10.51276105 </i>
    <i name="e_wo_entrp">    -10.51276105 </i>
    <i name="e_0_energy">    -10.51276105 </i>
   </energy>
  </scstep>
  <scstep>
   <time name="total"> 1253.61 1257.11</time>
   <energy>
    <i name="alphaZ">      5.96247035 </i>
    <i name="ewald">   -980.81834700 </i>
    <i name="hartreedc">    -61.15400375 </i>
    <i name="XCdc">   -303.89343352 </i>
    <i name="pawpsdc">   1899.33427477 </i>
    <i name="pawaedc">  -1550.30480448 </i>
    <i name="eentropy">     -0.00000000 </i>
    <i name="bandstr">      8.91959028 </i>
    <i name="atom">    971.44149227 </i>
    <i name="e_fr_energy">    -10.51276108 </i>
    <i name="e_wo_entrp">    -10.51276108 </i>
    <i name="e_0_energy">    -10.51276108 </i>
   </energy>
  </scstep>
  <structure>
   <crystal>
    <varray name="basis" >
     <v>      10.26342645      -2.21881605       0.00000000 </v>
     <v>      10.26342645       2.21881605       0.00000000 </v>
     <v>       9.78374798       0.00000000       3.81304899 </v>
    </varray>
    <i name="volume">    173.66650063 </i>
    <varray name="rec_basis" >
     <v>       0.04871667      -0.22534540      -0.12500014 </v>
     <v>       0.04871667       0.22534540      -0.12500014 </v>
     <v>      -0.00000000       0.00000000       0.26225732 </v>
    </varray>
   </crystal>
   <varray name="positions" >
    <v>       0.39959548       0.39959548       0.39959548 </v>
    <v>       0.60040452       0.60040452       0.60040452 </v>
    <v>       0.00000000       0.00000000       0.00000000 </v>
    <v>       0.21094281       0.21094281       0.21094281 </v>
    <v>       0.78905719       0.78905719       0.78905719 </v>
   </varray>
  </structure>
  <varray name="forces" >
   <v>       0.14604461      -0.02981867       0.00102796 </v>
   <v>      -0.14604451       0.02981861      -0.00102801 </v>
   <v>      -0.00000006       0.00000010       0.00000024 </v>
   <v>       0.18320388      -0.10986993       0.01084979 </v>
   <v>      -0.18320392       0.10986989      -0.01084998 </v>
  </varray>
  <varray name="stress" >
   <v>      46.79567259       7.91118863     -19.60159254 </v>
   <v>       7.91118916     276.02187647     -29.93607957 </v>
   <v>     -19.60159099     -29.93607854     207.64865532 </v>
  </varray>
  <energy>
   <i name="e_fr_energy">    -11.94463343 </i>
   <i name="e_wo_entrp">    -11.94463343 </i>
   <i name="e_0_energy">     -0.00000000 </i>
  </energy>
  <time name="totalsc">10133.3410734.16</time>
  <eigenvalues>
   <array>
    <dimension dim="1">band</dimension>
    <dimension dim="2">kpoint</dimension>
    <dimension dim="3">spin</dimension>
    <field>eigene</field>
    <field>occ</field>
    <set>
     <set comment="spin 1">
      <set comment="kpoint 1">
       <r>   -6.0134    1.0000 </r>
       <r>   -6.0134    1.0000 </r>
       <r>   -5.9176    1.0000 </r>
       <r>   -5.9175    1.0000 </r>
       <r>   -5.4737    1.0000 </r>
       <r>   -5.4737    1.0000 </r>
       <r>   -4.8335    1.0000 </r>
       <r>   -4.8335    1.0000 </r>
       <r>   -4.2484    1.0000 </r>
       <r>   -4.2484    1.0000 </r>
       <r>    0.5443    1.0000 </r>
       <r>    0.5443    1.0000 </r>
       <r>    1.3342    1.0000 </r>
       <r>    1.3342    1.0000 </r>
       <r>    1.5590    1.0000 </r>
       <r>    1.5590    1.0000 </r>
       <r>    2.3491    1.0000 </r>
       <r>    2.3491    1.0000 </r>
       <r>    2.5749    1.0000 </r>
       <r>    2.5749    1.0000 </r>
       <r>    3.2587    1.0000 </r>
       <r>    3.2587    1.0000 </r>
       <r>    3.7399    1.0000 </r>
       <r>    3.7399    1.0000 </r>
       <r>    4.3820    1.0000 </r>
       <r>    4.3820    1.0000 </r>
       <r>    4.4904    1.0000 </r>
       <r>    4.4904    1.0000 </r>
       <r>    6.2983    0.0000 </r>
       <r>    6.2983    0.0000 </r>
       <r>    6.9341    0.0000 </r>
       <r>    6.9341    0.0000 </r>
       <r>    7.3984    0.0000 </r>
       <r>    7.3984    0.0000 </r>
       <r>    7.7630    0.0000 </r>
       <r>    7.7630    0.0000 </r>
       <r>    8.5762    0.0000 </r>
       <r>    8.5763    0.0000 </r>
       <r>    9.0922    0.0000 </r>
       <r>    9.0922    0.0000 </r>
       <r>   10.3032    0.0000 </r>
       <r>   10.3032    0.0000 </r>
       <r>   10.6837    0.0000 </r>
       <r>   10.6838    0.0000 </r>
       <r>   12.3246    0.0000 </r>
       <r>   12.3246    0.0000 </r>
       <r>   13.6798    0.0000 </r>
       <r>   13.6798    0.0000 </r>
       <r>   13.9825    0.0000 </r>
       <r>   13.9825    0.0000 </r>
       <r>   14.2739    0.0000 </r>
       <r>   14.2739    0.0000 </r>
       <r>   14.3707    0.0000 </r>
       <r>   14.3707    0.0000 </r>
       <r>   14.7257    0.0000 </r>
       <r>   14.7257    0.0000 </r>
       <r>   14.8835    0.0000 </r>
       <r>   14.8835    0.0000 </r>
       <r>   15.4250    0.0000 </r>
       <r>   15.4250    0.0000 </r>
       <r>   15.7397    0.0000 </r>
       <r>   15.7398    0.0000 </r>
       <r>   15.8705    0.0000 </r>
       <r>   15.8706    0.0000 </r>
       <r>   16.0448    0.0000 </r>
       <r>   16.0448    0.0000 </r>
       <r>   16.2367    0.0000 </r>
       <r>   16.2367    0.0000 </r>
       <r>   16.3876    0.0000 </r>
       <r>   16.3876    0.0000 </r>
       <r>   16.9369    0.0000 </r>
       <r>   16.9369    0.0000 </r>
       <r>   17.2357    0.0000 </r>
       <r>   17.2357    0.0000 </r>
       <r>   17.5315    0.0000 </r>
       <r>   17.5316    0.0000 </r>
       <r>   17.6343    0.0000 </r>
       <r>   17.6343    0.0000 </r>
       <r>   18.2779    0.0000 </r>
       <r>   18.2781    0.0000 </r>
       <r>   18.4183    0.0000 </r>
       <r>   18.4184    0.0000 </r>
       <r>   18.8993    0.0000 </r>
       <r>   18.9023    0.0000 </r>
       <r>   19.1028    0.0000 </r>
       <r>   19.1081    0.0000 </r>
       <r>   19.1997    0.0000 </r>
       <r>   19.2520    0.0000 </r>
      </set>
      <set comment="kpoint 2">
       <r>   -6.0520    1.0000 </r>
       <r>   -6.0520    1.0000 </r>
       <r>   -5.9125    1.0000 </r>
       <r>   -5.9125    1.0000 </r>
       <r>   -5.4855    1.0000 </r>
       <r>   -5.4855    1.0000 </r>
       <r>   -4.7724    1.0000 </r>
       <r>   -4.7724    1.0000 </r>
       <r>   -4.2661    1.0000 </r>
       <r>   -4.2661    1.0000 </r>
       <r>    0.5667    1.0000 </r>
       <r>    0.5667    1.0000 </r>
       <r>    1.3116    1.0000 </r>
       <r>    1.3117    1.0000 </r>
       <r>    1.5851    1.0000 </r>
       <r>    1.5851    1.0000 </r>
       <r>    2.3633    1.0000 </r>
       <r>    2.3633    1.0000 </r>
       <r>    2.5456    1.0000 </r>
       <r>    2.5456    1.0000 </r>
       <r>    3.2369    1.0000 </r>
       <r>    3.2369    1.0000 </r>
       <r>    3.7637    1.0000 </r>
       <r>    3.7637    1.0000 </r>
       <r>    4.4286    1.0000 </r>
       <r>    4.4286    1.0000 </r>
       <r>    4.5207    1.0000 </r>
       <r>    4.5207    1.0000 </r>
       <r>    6.2595    0.0000 </r>
       <r>    6.2595    0.0000 </r>
       <r>    6.9054    0.0000 </r>
       <r>    6.9054    0.0000 </r>
       <r>    7.3652    0.0000 </r>
       <r>    7.3652    0.0000 </r>
       <r>    7.7803    0.0000 </r>
       <r>    7.7803    0.0000 </r>
       <r>    8.5936    0.0000 </r>
       <r>    8.5937    0.0000 </r>
       <r>    9.1204    0.0000 </r>
       <r>    9.1204    0.0000 </r>
       <r>   10.3058    0.0000 </r>
       <r>   10.3058    0.0000 </r>
       <r>   10.6244    0.0000 </r>
       <r>   10.6244    0.0000 </r>
       <r>   12.4777    0.0000 </r>
       <r>   12.4777    0.0000 </r>
       <r>   13.5409    0.0000 </r>
       <r>   13.5410    0.0000 </r>
       <r>   13.9727    0.0000 </r>
       <r>   13.9727    0.0000 </r>
       <r>   14.1903    0.0000 </r>
       <r>   14.1903    0.0000 </r>
       <r>   14.2685    0.0000 </r>
       <r>   14.2685    0.0000 </r>
       <r>   14.6115    0.0000 </r>
       <r>   14.6115    0.0000 </r>
       <r>   15.0111    0.0000 </r>
       <r>   15.0111    0.0000 </r>
       <r>   15.3643    0.0000 </r>
       <r>   15.3643    0.0000 </r>
       <r>   15.6937    0.0000 </r>
       <r>   15.6937    0.0000 </r>
       <r>   15.9390    0.0000 </r>
       <r>   15.9390    0.0000 </r>
       <r>   16.1206    0.0000 </r>
       <r>   16.1206    0.0000 </r>
       <r>   16.3514    0.0000 </r>
       <r>   16.3514    0.0000 </r>
       <r>   16.5353    0.0000 </r>
       <r>   16.5353    0.0000 </r>
       <r>   16.8259    0.0000 </r>
       <r>   16.8259    0.0000 </r>
       <r>   17.1216    0.0000 </r>
       <r>   17.1216    0.0000 </r>
       <r>   17.4097    0.0000 </r>
       <r>   17.4097    0.0000 </r>
       <r>   17.6662    0.0000 </r>
       <r>   17.6663    0.0000 </r>
       <r>   18.3786    0.0000 </r>
       <r>   18.3792    0.0000 </r>
       <r>   18.5175    0.0000 </r>
       <r>   18.5188    0.0000 </r>
       <r>   18.8126    0.0000 </r>
       <r>   18.8305    0.0000 </r>
       <r>   18.9737    0.0000 </r>
       <r>   18.9811    0.0000 </r>
       <r>   19.2461    0.0000 </r>
       <r>   19.3201    0.0000 </r>
      </set>
      <set comment="kpoint 3">
       <r>   -6.0941    1.0000 </r>
       <r>   -6.0941    1.0000 </r>
       <r>   -5.9317    1.0000 </r>
       <r>   -5.9317    1.0000 </r>
       <r>   -5.4760    1.0000 </r>
       <r>   -5.4759    1.0000 </r>
       <r>   -4.7076    1.0000 </r>
       <r>   -4.7076    1.0000 </r>
       <r>   -4.2815    1.0000 </r>
       <r>   -4.2815    1.0000 </r>
       <r>    0.5934    1.0000 </r>
       <r>    0.5934    1.0000 </r>
       <r>    1.2916    1.0000 </r>
       <r>    1.2916    1.0000 </r>
       <r>    1.6171    1.0000 </r>
       <r>    1.6171    1.0000 </r>
       <r>    2.3801    1.0000 </r>
       <r>    2.3801    1.0000 </r>
       <r>    2.5185    1.0000 </r>
       <r>    2.5185    1.0000 </r>
       <r>    3.2141    1.0000 </r>
       <r>    3.2141    1.0000 </r>
       <r>    3.7935    1.0000 </r>
       <r>    3.7935    1.0000 </r>
       <r>    4.4753    1.0000 </r>
       <r>    4.4753    1.0000 </r>
       <r>    4.5529    1.0000 </r>
       <r>    4.5529    1.0000 </r>
       <r>    6.2197    0.0000 </r>
       <r>    6.2197    0.0000 </r>
       <r>    6.8788    0.0000 </r>
       <r>    6.8789    0.0000 </r>
       <r>    7.3307    0.0000 </r>
       <r>    7.3307    0.0000 </r>
       <r>    7.7977    0.0000 </r>
       <r>    7.7977    0.0000 </r>
       <r>    8.6169    0.0000 </r>
       <r>    8.6169    0.0000 </r>
       <r>    9.1421    0.0000 </r>
       <r>    9.1421    0.0000 </r>
       <r>   10.3004    0.0000 </r>
       <r>   10.3004    0.0000 </r>
       <r>   10.5787    0.0000 </r>
       <r>   10.5787    0.0000 </r>
       <r>   12.6301    0.0000 </r>
       <r>   12.6301    0.0000 </r>
       <r>   13.3993    0.0000 </r>
       <r>   13.3993    0.0000 </r>
       <r>   13.9184    0.0000 </r>
       <r>   13.9184    0.0000 </r>
       <r>   14.0870    0.0000 </r>
       <r>   14.0871    0.0000 </r>
       <r>   14.1746    0.0000 </r>
       <r>   14.1746    0.0000 </r>
       <r>   14.4810    0.0000 </r>
       <r>   14.4811    0.0000 </r>
       <r>   15.1429    0.0000 </r>
       <r>   15.1429    0.0000 </r>
       <r>   15.2711    0.0000 </r>
       <r>   15.2711    0.0000 </r>
       <r>   15.6470    0.0000 </r>
       <r>   15.6470    0.0000 </r>
       <r>   16.0515    0.0000 </r>
       <r>   16.0515    0.0000 </r>
       <r>   16.1988    0.0000 </r>
       <r>   16.1988    0.0000 </r>
       <r>   16.4944    0.0000 </r>
       <r>   16.4944    0.0000 </r>
       <r>   16.6485    0.0000 </r>
       <r>   16.6486    0.0000 </r>
       <r>   16.7440    0.0000 </r>
       <r>   16.7440    0.0000 </r>
       <r>   17.0122    0.0000 </r>
       <r>   17.0123    0.0000 </r>
       <r>   17.2880    0.0000 </r>
       <r>   17.2880    0.0000 </r>
       <r>   17.7068    0.0000 </r>
       <r>   17.7068    0.0000 </r>
       <r>   18.4818    0.0000 </r>
       <r>   18.4819    0.0000 </r>
       <r>   18.5852    0.0000 </r>
       <r>   18.5862    0.0000 </r>
       <r>   18.7870    0.0000 </r>
       <r>   18.7895    0.0000 </r>
       <r>   18.8546    0.0000 </r>
       <r>   18.8621    0.0000 </r>
       <r>   19.1392    0.0000 </r>
       <r>   19.1542    0.0000 </r>
      </set>
      <set comment="kpoint 4">
       <r>   -6.1394    1.0000 </r>
       <r>   -6.1394    1.0000 </r>
       <r>   -5.9705    1.0000 </r>
       <r>   -5.9704    1.0000 </r>
       <r>   -5.4481    1.0000 </r>
       <r>   -5.4481    1.0000 </r>
       <r>   -4.6438    1.0000 </r>
       <r>   -4.6438    1.0000 </r>
       <r>   -4.2918    1.0000 </r>
       <r>   -4.2918    1.0000 </r>
       <r>    0.6242    1.0000 </r>
       <r>    0.6242    1.0000 </r>
       <r>    1.2752    1.0000 </r>
       <r>    1.2752    1.0000 </r>
       <r>    1.6538    1.0000 </r>
       <r>    1.6539    1.0000 </r>
       <r>    2.3972    1.0000 </r>
       <r>    2.3972    1.0000 </r>
       <r>    2.4962    1.0000 </r>
       <r>    2.4962    1.0000 </r>
       <r>    3.1912    1.0000 </r>
       <r>    3.1912    1.0000 </r>
       <r>    3.8278    1.0000 </r>
       <r>    3.8278    1.0000 </r>
       <r>    4.5214    1.0000 </r>
       <r>    4.5214    1.0000 </r>
       <r>    4.5873    1.0000 </r>
       <r>    4.5873    1.0000 </r>
       <r>    6.1789    0.0000 </r>
       <r>    6.1789    0.0000 </r>
       <r>    6.8547    0.0000 </r>
       <r>    6.8547    0.0000 </r>
       <r>    7.2953    0.0000 </r>
       <r>    7.2953    0.0000 </r>
       <r>    7.8151    0.0000 </r>
       <r>    7.8151    0.0000 </r>
       <r>    8.6452    0.0000 </r>
       <r>    8.6452    0.0000 </r>
       <r>    9.1568    0.0000 </r>
       <r>    9.1568    0.0000 </r>
       <r>   10.2883    0.0000 </r>
       <r>   10.2883    0.0000 </r>
       <r>   10.5452    0.0000 </r>
       <r>   10.5452    0.0000 </r>
       <r>   12.7721    0.0000 </r>
       <r>   12.7722    0.0000 </r>
       <r>   13.2658    0.0000 </r>
       <r>   13.2658    0.0000 </r>
       <r>   13.8332    0.0000 </r>
       <r>   13.8332    0.0000 </r>
       <r>   13.9592    0.0000 </r>
       <r>   13.9592    0.0000 </r>
       <r>   14.1027    0.0000 </r>
       <r>   14.1027    0.0000 </r>
       <r>   14.3419    0.0000 </r>
       <r>   14.3419    0.0000 </r>
       <r>   15.1389    0.0000 </r>
       <r>   15.1389    0.0000 </r>
       <r>   15.2866    0.0000 </r>
       <r>   15.2867    0.0000 </r>
       <r>   15.6025    0.0000 </r>
       <r>   15.6025    0.0000 </r>
       <r>   16.1770    0.0000 </r>
       <r>   16.1770    0.0000 </r>
       <r>   16.2737    0.0000 </r>
       <r>   16.2737    0.0000 </r>
       <r>   16.5652    0.0000 </r>
       <r>   16.5652    0.0000 </r>
       <r>   16.6566    0.0000 </r>
       <r>   16.6566    0.0000 </r>
       <r>   16.8531    0.0000 </r>
       <r>   16.8531    0.0000 </r>
       <r>   16.9192    0.0000 </r>
       <r>   16.9192    0.0000 </r>
       <r>   17.1820    0.0000 </r>
       <r>   17.1820    0.0000 </r>
       <r>   17.7380    0.0000 </r>
       <r>   17.7380    0.0000 </r>
       <r>   18.5254    0.0000 </r>
       <r>   18.5272    0.0000 </r>
       <r>   18.6050    0.0000 </r>
       <r>   18.6079    0.0000 </r>
       <r>   18.7486    0.0000 </r>
       <r>   18.7582    0.0000 </r>
       <r>   18.8926    0.0000 </r>
       <r>   18.9128    0.0000 </r>
       <r>   19.0278    0.0000 </r>
       <r>   19.0495    0.0000 </r>
      </set>
      <set comment="kpoint 5">
       <r>   -6.1879    1.0000 </r>
       <r>   -6.1879    1.0000 </r>
       <r>   -6.0210    1.0000 </r>
       <r>   -6.0210    1.0000 </r>
       <r>   -5.4085    1.0000 </r>
       <r>   -5.4085    1.0000 </r>
       <r>   -4.5873    1.0000 </r>
       <r>   -4.5872    1.0000 </r>
       <r>   -4.2917    1.0000 </r>
       <r>   -4.2917    1.0000 </r>
       <r>    0.6591    1.0000 </r>
       <r>    0.6591    1.0000 </r>
       <r>    1.2630    1.0000 </r>
       <r>    1.2630    1.0000 </r>
       <r>    1.6945    1.0000 </r>
       <r>    1.6945    1.0000 </r>
       <r>    2.4073    1.0000 </r>
       <r>    2.4073    1.0000 </r>
       <r>    2.4862    1.0000 </r>
       <r>    2.4862    1.0000 </r>
       <r>    3.1691    1.0000 </r>
       <r>    3.1691    1.0000 </r>
       <r>    3.8658    1.0000 </r>
       <r>    3.8659    1.0000 </r>
       <r>    4.5653    1.0000 </r>
       <r>    4.5653    1.0000 </r>
       <r>    4.6249    1.0000 </r>
       <r>    4.6249    1.0000 </r>
       <r>    6.1375    0.0000 </r>
       <r>    6.1375    0.0000 </r>
       <r>    6.8331    0.0000 </r>
       <r>    6.8331    0.0000 </r>
       <r>    7.2598    0.0000 </r>
       <r>    7.2599    0.0000 </r>
       <r>    7.8321    0.0000 </r>
       <r>    7.8321    0.0000 </r>
       <r>    8.6776    0.0000 </r>
       <r>    8.6777    0.0000 </r>
       <r>    9.1644    0.0000 </r>
       <r>    9.1644    0.0000 </r>
       <r>   10.2717    0.0000 </r>
       <r>   10.2717    0.0000 </r>
       <r>   10.5209    0.0000 </r>
       <r>   10.5209    0.0000 </r>
       <r>   12.8634    0.0000 </r>
       <r>   12.8635    0.0000 </r>
       <r>   13.1802    0.0000 </r>
       <r>   13.1803    0.0000 </r>
       <r>   13.7325    0.0000 </r>
       <r>   13.7325    0.0000 </r>
       <r>   13.8281    0.0000 </r>
       <r>   13.8281    0.0000 </r>
       <r>   14.0308    0.0000 </r>
       <r>   14.0309    0.0000 </r>
       <r>   14.1999    0.0000 </r>
       <r>   14.1999    0.0000 </r>
       <r>   15.0183    0.0000 </r>
       <r>   15.0183    0.0000 </r>
       <r>   15.3822    0.0000 </r>
       <r>   15.3822    0.0000 </r>
       <r>   15.5669    0.0000 </r>
       <r>   15.5669    0.0000 </r>
       <r>   16.2337    0.0000 </r>
       <r>   16.2338    0.0000 </r>
       <r>   16.3714    0.0000 </r>
       <r>   16.3715    0.0000 </r>
       <r>   16.5099    0.0000 </r>
       <r>   16.5099    0.0000 </r>
       <r>   16.7530    0.0000 </r>
       <r>   16.7530    0.0000 </r>
       <r>   16.8774    0.0000 </r>
       <r>   16.8774    0.0000 </r>
       <r>   16.9773    0.0000 </r>
       <r>   16.9773    0.0000 </r>
       <r>   17.1330    0.0000 </r>
       <r>   17.1330    0.0000 </r>
       <r>   17.7554    0.0000 </r>
       <r>   17.7554    0.0000 </r>
       <r>   18.4270    0.0000 </r>
       <r>   18.4284    0.0000 </r>
       <r>   18.6231    0.0000 </r>
       <r>   18.6271    0.0000 </r>
       <r>   18.7487    0.0000 </r>
       <r>   18.7715    0.0000 </r>
       <r>   18.9625    0.0000 </r>
       <r>   19.0132    0.0000 </r>
       <r>   19.0188    0.0000 </r>
       <r>   19.0969    0.0000 </r>
      </set>
      <set comment="kpoint 6">
       <r>   -6.2396    1.0000 </r>
       <r>   -6.2396    1.0000 </r>
       <r>   -6.0769    1.0000 </r>
       <r>   -6.0769    1.0000 </r>
       <r>   -5.3632    1.0000 </r>
       <r>   -5.3632    1.0000 </r>
       <r>   -4.5458    1.0000 </r>
       <r>   -4.5458    1.0000 </r>
       <r>   -4.2737    1.0000 </r>
       <r>   -4.2737    1.0000 </r>
       <r>    0.6979    1.0000 </r>
       <r>    0.6979    1.0000 </r>
       <r>    1.2558    1.0000 </r>
       <r>    1.2558    1.0000 </r>
       <r>    1.7382    1.0000 </r>
       <r>    1.7382    1.0000 </r>
       <r>    2.4016    1.0000 </r>
       <r>    2.4016    1.0000 </r>
       <r>    2.4978    1.0000 </r>
       <r>    2.4979    1.0000 </r>
       <r>    3.1484    1.0000 </r>
       <r>    3.1485    1.0000 </r>
       <r>    3.9067    1.0000 </r>
       <r>    3.9067    1.0000 </r>
       <r>    4.6056    1.0000 </r>
       <r>    4.6056    1.0000 </r>
       <r>    4.6666    1.0000 </r>
       <r>    4.6666    1.0000 </r>
       <r>    6.0956    0.0000 </r>
       <r>    6.0956    0.0000 </r>
       <r>    6.8140    0.0000 </r>
       <r>    6.8140    0.0000 </r>
       <r>    7.2248    0.0000 </r>
       <r>    7.2249    0.0000 </r>
       <r>    7.8482    0.0000 </r>
       <r>    7.8483    0.0000 </r>
       <r>    8.7136    0.0000 </r>
       <r>    8.7136    0.0000 </r>
       <r>    9.1654    0.0000 </r>
       <r>    9.1654    0.0000 </r>
       <r>   10.2524    0.0000 </r>
       <r>   10.2524    0.0000 </r>
       <r>   10.5025    0.0000 </r>
       <r>   10.5026    0.0000 </r>
       <r>   12.8202    0.0000 </r>
       <r>   12.8203    0.0000 </r>
       <r>   13.2201    0.0000 </r>
       <r>   13.2201    0.0000 </r>
       <r>   13.6287    0.0000 </r>
       <r>   13.6287    0.0000 </r>
       <r>   13.7042    0.0000 </r>
       <r>   13.7042    0.0000 </r>
       <r>   13.9518    0.0000 </r>
       <r>   13.9518    0.0000 </r>
       <r>   14.0598    0.0000 </r>
       <r>   14.0599    0.0000 </r>
       <r>   14.8918    0.0000 </r>
       <r>   14.8918    0.0000 </r>
       <r>   15.4155    0.0000 </r>
       <r>   15.4155    0.0000 </r>
       <r>   15.5584    0.0000 </r>
       <r>   15.5584    0.0000 </r>
       <r>   16.1944    0.0000 </r>
       <r>   16.1944    0.0000 </r>
       <r>   16.4692    0.0000 </r>
       <r>   16.4693    0.0000 </r>
       <r>   16.5138    0.0000 </r>
       <r>   16.5138    0.0000 </r>
       <r>   16.7394    0.0000 </r>
       <r>   16.7394    0.0000 </r>
       <r>   16.8872    0.0000 </r>
       <r>   16.8873    0.0000 </r>
       <r>   17.1041    0.0000 </r>
       <r>   17.1041    0.0000 </r>
       <r>   17.2063    0.0000 </r>
       <r>   17.2064    0.0000 </r>
       <r>   17.7695    0.0000 </r>
       <r>   17.7695    0.0000 </r>
       <r>   18.2911    0.0000 </r>
       <r>   18.2918    0.0000 </r>
       <r>   18.5497    0.0000 </r>
       <r>   18.5519    0.0000 </r>
       <r>   18.7655    0.0000 </r>
       <r>   18.8039    0.0000 </r>
       <r>   18.9182    0.0000 </r>
       <r>   18.9448    0.0000 </r>
       <r>   19.0573    0.0000 </r>
       <r>   19.1825    0.0000 </r>
      </set>
      <set comment="kpoint 7">
       <r>   -6.2949    1.0000 </r>
       <r>   -6.2949    1.0000 </r>
       <r>   -6.1340    1.0000 </r>
       <r>   -6.1340    1.0000 </r>
       <r>   -5.3162    1.0000 </r>
       <r>   -5.3162    1.0000 </r>
       <r>   -4.5238    1.0000 </r>
       <r>   -4.5238    1.0000 </r>
       <r>   -4.2335    1.0000 </r>
       <r>   -4.2334    1.0000 </r>
       <r>    0.7402    1.0000 </r>
       <r>    0.7402    1.0000 </r>
       <r>    1.2538    1.0000 </r>
       <r>    1.2538    1.0000 </r>
       <r>    1.7845    1.0000 </r>
       <r>    1.7845    1.0000 </r>
       <r>    2.3859    1.0000 </r>
       <r>    2.3859    1.0000 </r>
       <r>    2.5257    1.0000 </r>
       <r>    2.5257    1.0000 </r>
       <r>    3.1297    1.0000 </r>
       <r>    3.1297    1.0000 </r>
       <r>    3.9496    1.0000 </r>
       <r>    3.9496    1.0000 </r>
       <r>    4.6419    1.0000 </r>
       <r>    4.6419    1.0000 </r>
       <r>    4.7123    1.0000 </r>
       <r>    4.7123    1.0000 </r>
       <r>    6.0534    0.0000 </r>
       <r>    6.0535    0.0000 </r>
       <r>    6.7975    0.0000 </r>
       <r>    6.7975    0.0000 </r>
       <r>    7.1911    0.0000 </r>
       <r>    7.1911    0.0000 </r>
       <r>    7.8629    0.0000 </r>
       <r>    7.8629    0.0000 </r>
       <r>    8.7523    0.0000 </r>
       <r>    8.7523    0.0000 </r>
       <r>    9.1608    0.0000 </r>
       <r>    9.1608    0.0000 </r>
       <r>   10.2307    0.0000 </r>
       <r>   10.2307    0.0000 </r>
       <r>   10.4880    0.0000 </r>
       <r>   10.4880    0.0000 </r>
       <r>   12.6951    0.0000 </r>
       <r>   12.6952    0.0000 </r>
       <r>   13.2989    0.0000 </r>
       <r>   13.2989    0.0000 </r>
       <r>   13.5508    0.0000 </r>
       <r>   13.5508    0.0000 </r>
       <r>   13.5971    0.0000 </r>
       <r>   13.5971    0.0000 </r>
       <r>   13.8652    0.0000 </r>
       <r>   13.8652    0.0000 </r>
       <r>   13.9283    0.0000 </r>
       <r>   13.9283    0.0000 </r>
       <r>   14.7652    0.0000 </r>
       <r>   14.7653    0.0000 </r>
       <r>   15.3830    0.0000 </r>
       <r>   15.3830    0.0000 </r>
       <r>   15.5542    0.0000 </r>
       <r>   15.5542    0.0000 </r>
       <r>   16.1490    0.0000 </r>
       <r>   16.1490    0.0000 </r>
       <r>   16.4511    0.0000 </r>
       <r>   16.4511    0.0000 </r>
       <r>   16.5535    0.0000 </r>
       <r>   16.5535    0.0000 </r>
       <r>   16.7370    0.0000 </r>
       <r>   16.7370    0.0000 </r>
       <r>   16.9063    0.0000 </r>
       <r>   16.9064    0.0000 </r>
       <r>   17.2726    0.0000 </r>
       <r>   17.2726    0.0000 </r>
       <r>   17.3234    0.0000 </r>
       <r>   17.3234    0.0000 </r>
       <r>   17.7956    0.0000 </r>
       <r>   17.7956    0.0000 </r>
       <r>   18.1647    0.0000 </r>
       <r>   18.1647    0.0000 </r>
       <r>   18.4109    0.0000 </r>
       <r>   18.4114    0.0000 </r>
       <r>   18.6933    0.0000 </r>
       <r>   18.7021    0.0000 </r>
       <r>   18.9400    0.0000 </r>
       <r>   18.9569    0.0000 </r>
       <r>   19.1564    0.0000 </r>
       <r>   19.2606    0.0000 </r>
      </set>
      <set comment="kpoint 8">
       <r>   -6.3536    1.0000 </r>
       <r>   -6.3536    1.0000 </r>
       <r>   -6.1897    1.0000 </r>
       <r>   -6.1897    1.0000 </r>
       <r>   -5.2707    1.0000 </r>
       <r>   -5.2707    1.0000 </r>
       <r>   -4.5169    1.0000 </r>
       <r>   -4.5169    1.0000 </r>
       <r>   -4.1747    1.0000 </r>
       <r>   -4.1747    1.0000 </r>
       <r>    0.7858    1.0000 </r>
       <r>    0.7858    1.0000 </r>
       <r>    1.2576    1.0000 </r>
       <r>    1.2576    1.0000 </r>
       <r>    1.8324    1.0000 </r>
       <r>    1.8324    1.0000 </r>
       <r>    2.3684    1.0000 </r>
       <r>    2.3684    1.0000 </r>
       <r>    2.5620    1.0000 </r>
       <r>    2.5620    1.0000 </r>
       <r>    3.1133    1.0000 </r>
       <r>    3.1133    1.0000 </r>
       <r>    3.9941    1.0000 </r>
       <r>    3.9941    1.0000 </r>
       <r>    4.6747    1.0000 </r>
       <r>    4.6747    1.0000 </r>
       <r>    4.7608    1.0000 </r>
       <r>    4.7608    1.0000 </r>
       <r>    6.0112    0.0000 </r>
       <r>    6.0112    0.0000 </r>
       <r>    6.7834    0.0000 </r>
       <r>    6.7834    0.0000 </r>
       <r>    7.1592    0.0000 </r>
       <r>    7.1592    0.0000 </r>
       <r>    7.8753    0.0000 </r>
       <r>    7.8753    0.0000 </r>
       <r>    8.7927    0.0000 </r>
       <r>    8.7927    0.0000 </r>
       <r>    9.1520    0.0000 </r>
       <r>    9.1521    0.0000 </r>
       <r>   10.2054    0.0000 </r>
       <r>   10.2054    0.0000 </r>
       <r>   10.4762    0.0000 </r>
       <r>   10.4762    0.0000 </r>
       <r>   12.5513    0.0000 </r>
       <r>   12.5513    0.0000 </r>
       <r>   13.2699    0.0000 </r>
       <r>   13.2699    0.0000 </r>
       <r>   13.4679    0.0000 </r>
       <r>   13.4679    0.0000 </r>
       <r>   13.6093    0.0000 </r>
       <r>   13.6093    0.0000 </r>
       <r>   13.7730    0.0000 </r>
       <r>   13.7730    0.0000 </r>
       <r>   13.8234    0.0000 </r>
       <r>   13.8234    0.0000 </r>
       <r>   14.6409    0.0000 </r>
       <r>   14.6409    0.0000 </r>
       <r>   15.3224    0.0000 </r>
       <r>   15.3224    0.0000 </r>
       <r>   15.5068    0.0000 </r>
       <r>   15.5068    0.0000 </r>
       <r>   16.1272    0.0000 </r>
       <r>   16.1272    0.0000 </r>
       <r>   16.4017    0.0000 </r>
       <r>   16.4018    0.0000 </r>
       <r>   16.5121    0.0000 </r>
       <r>   16.5121    0.0000 </r>
       <r>   16.7476    0.0000 </r>
       <r>   16.7476    0.0000 </r>
       <r>   16.9941    0.0000 </r>
       <r>   16.9942    0.0000 </r>
       <r>   17.4014    0.0000 </r>
       <r>   17.4014    0.0000 </r>
       <r>   17.4762    0.0000 </r>
       <r>   17.4762    0.0000 </r>
       <r>   17.8348    0.0000 </r>
       <r>   17.8349    0.0000 </r>
       <r>   18.0797    0.0000 </r>
       <r>   18.0798    0.0000 </r>
       <r>   18.2593    0.0000 </r>
       <r>   18.2595    0.0000 </r>
       <r>   18.5769    0.0000 </r>
       <r>   18.5780    0.0000 </r>
       <r>   18.9561    0.0000 </r>
       <r>   18.9929    0.0000 </r>
       <r>   19.0412    0.0000 </r>
       <r>   19.1181    0.0000 </r>
      </set>
      <set comment="kpoint 9">
       <r>   -6.4155    1.0000 </r>
       <r>   -6.4155    1.0000 </r>
       <r>   -6.2430    1.0000 </r>
       <r>   -6.2430    1.0000 </r>
       <r>   -5.2292    1.0000 </r>
       <r>   -5.2292    1.0000 </r>
       <r>   -4.5165    1.0000 </r>
       <r>   -4.5165    1.0000 </r>
       <r>   -4.1048    1.0000 </r>
       <r>   -4.1048    1.0000 </r>
       <r>    0.8341    1.0000 </r>
       <r>    0.8342    1.0000 </r>
       <r>    1.2676    1.0000 </r>
       <r>    1.2676    1.0000 </r>
       <r>    1.8813    1.0000 </r>
       <r>    1.8813    1.0000 </r>
       <r>    2.3528    1.0000 </r>
       <r>    2.3528    1.0000 </r>
       <r>    2.6038    1.0000 </r>
       <r>    2.6038    1.0000 </r>
       <r>    3.0996    1.0000 </r>
       <r>    3.0996    1.0000 </r>
       <r>    4.0396    1.0000 </r>
       <r>    4.0396    1.0000 </r>
       <r>    4.7048    1.0000 </r>
       <r>    4.7048    1.0000 </r>
       <r>    4.8109    1.0000 </r>
       <r>    4.8109    1.0000 </r>
       <r>    5.9691    0.0000 </r>
       <r>    5.9691    0.0000 </r>
       <r>    6.7717    0.0000 </r>
       <r>    6.7717    0.0000 </r>
       <r>    7.1301    0.0000 </r>
       <r>    7.1301    0.0000 </r>
       <r>    7.8846    0.0000 </r>
       <r>    7.8846    0.0000 </r>
       <r>    8.8334    0.0000 </r>
       <r>    8.8334    0.0000 </r>
       <r>    9.1414    0.0000 </r>
       <r>    9.1415    0.0000 </r>
       <r>   10.1745    0.0000 </r>
       <r>   10.1745    0.0000 </r>
       <r>   10.4670    0.0000 </r>
       <r>   10.4671    0.0000 </r>
       <r>   12.4039    0.0000 </r>
       <r>   12.4040    0.0000 </r>
       <r>   13.1666    0.0000 </r>
       <r>   13.1666    0.0000 </r>
       <r>   13.3619    0.0000 </r>
       <r>   13.3619    0.0000 </r>
       <r>   13.6040    0.0000 </r>
       <r>   13.6040    0.0000 </r>
       <r>   13.6956    0.0000 </r>
       <r>   13.6956    0.0000 </r>
       <r>   13.8365    0.0000 </r>
       <r>   13.8365    0.0000 </r>
       <r>   14.5205    0.0000 </r>
       <r>   14.5205    0.0000 </r>
       <r>   15.2415    0.0000 </r>
       <r>   15.2416    0.0000 </r>
       <r>   15.4267    0.0000 </r>
       <r>   15.4267    0.0000 </r>
       <r>   16.1047    0.0000 </r>
       <r>   16.1047    0.0000 </r>
       <r>   16.3528    0.0000 </r>
       <r>   16.3529    0.0000 </r>
       <r>   16.4357    0.0000 </r>
       <r>   16.4358    0.0000 </r>
       <r>   16.7458    0.0000 </r>
       <r>   16.7459    0.0000 </r>
       <r>   17.0840    0.0000 </r>
       <r>   17.0840    0.0000 </r>
       <r>   17.4724    0.0000 </r>
       <r>   17.4724    0.0000 </r>
       <r>   17.6641    0.0000 </r>
       <r>   17.6641    0.0000 </r>
       <r>   17.8403    0.0000 </r>
       <r>   17.8403    0.0000 </r>
       <r>   18.0737    0.0000 </r>
       <r>   18.0737    0.0000 </r>
       <r>   18.1390    0.0000 </r>
       <r>   18.1392    0.0000 </r>
       <r>   18.4958    0.0000 </r>
       <r>   18.4974    0.0000 </r>
       <r>   18.7150    0.0000 </r>
       <r>   18.7219    0.0000 </r>
       <r>   19.0987    0.0000 </r>
       <r>   19.2057    0.0000 </r>
      </set>
      <set comment="kpoint 10">
       <r>   -6.4796    1.0000 </r>
       <r>   -6.4796    1.0000 </r>
       <r>   -6.2934    1.0000 </r>
       <r>   -6.2934    1.0000 </r>
       <r>   -5.1939    1.0000 </r>
       <r>   -5.1939    1.0000 </r>
       <r>   -4.5162    1.0000 </r>
       <r>   -4.5162    1.0000 </r>
       <r>   -4.0292    1.0000 </r>
       <r>   -4.0292    1.0000 </r>
       <r>    0.8848    1.0000 </r>
       <r>    0.8849    1.0000 </r>
       <r>    1.2842    1.0000 </r>
       <r>    1.2842    1.0000 </r>
       <r>    1.9299    1.0000 </r>
       <r>    1.9299    1.0000 </r>
       <r>    2.3413    1.0000 </r>
       <r>    2.3413    1.0000 </r>
       <r>    2.6499    1.0000 </r>
       <r>    2.6499    1.0000 </r>
       <r>    3.0889    1.0000 </r>
       <r>    3.0889    1.0000 </r>
       <r>    4.0855    1.0000 </r>
       <r>    4.0855    1.0000 </r>
       <r>    4.7323    1.0000 </r>
       <r>    4.7323    1.0000 </r>
       <r>    4.8615    1.0000 </r>
       <r>    4.8615    1.0000 </r>
       <r>    5.9274    0.0000 </r>
       <r>    5.9274    0.0000 </r>
       <r>    6.7621    0.0000 </r>
       <r>    6.7621    0.0000 </r>
       <r>    7.1044    0.0000 </r>
       <r>    7.1044    0.0000 </r>
       <r>    7.8900    0.0000 </r>
       <r>    7.8900    0.0000 </r>
       <r>    8.8716    0.0000 </r>
       <r>    8.8716    0.0000 </r>
       <r>    9.1321    0.0000 </r>
       <r>    9.1322    0.0000 </r>
       <r>   10.1361    0.0000 </r>
       <r>   10.1361    0.0000 </r>
       <r>   10.4606    0.0000 </r>
       <r>   10.4606    0.0000 </r>
       <r>   12.2576    0.0000 </r>
       <r>   12.2577    0.0000 </r>
       <r>   13.0483    0.0000 </r>
       <r>   13.0484    0.0000 </r>
       <r>   13.2538    0.0000 </r>
       <r>   13.2539    0.0000 </r>
       <r>   13.5066    0.0000 </r>
       <r>   13.5066    0.0000 </r>
       <r>   13.6168    0.0000 </r>
       <r>   13.6169    0.0000 </r>
       <r>   13.9771    0.0000 </r>
       <r>   13.9771    0.0000 </r>
       <r>   14.4058    0.0000 </r>
       <r>   14.4058    0.0000 </r>
       <r>   15.1366    0.0000 </r>
       <r>   15.1367    0.0000 </r>
       <r>   15.3420    0.0000 </r>
       <r>   15.3421    0.0000 </r>
       <r>   16.0566    0.0000 </r>
       <r>   16.0566    0.0000 </r>
       <r>   16.3015    0.0000 </r>
       <r>   16.3016    0.0000 </r>
       <r>   16.3617    0.0000 </r>
       <r>   16.3617    0.0000 </r>
       <r>   16.7293    0.0000 </r>
       <r>   16.7293    0.0000 </r>
       <r>   17.1005    0.0000 </r>
       <r>   17.1006    0.0000 </r>
       <r>   17.5435    0.0000 </r>
       <r>   17.5435    0.0000 </r>
       <r>   17.7710    0.0000 </r>
       <r>   17.7710    0.0000 </r>
       <r>   17.8473    0.0000 </r>
       <r>   17.8473    0.0000 </r>
       <r>   18.0311    0.0000 </r>
       <r>   18.0311    0.0000 </r>
       <r>   18.2011    0.0000 </r>
       <r>   18.2012    0.0000 </r>
       <r>   18.4530    0.0000 </r>
       <r>   18.4531    0.0000 </r>
       <r>   18.5048    0.0000 </r>
       <r>   18.5054    0.0000 </r>
       <r>   19.1006    0.0000 </r>
       <r>   19.1490    0.0000 </r>
      </set>
      <set comment="kpoint 11">
       <r>   -6.5452    1.0000 </r>
       <r>   -6.5452    1.0000 </r>
       <r>   -6.3412    1.0000 </r>
       <r>   -6.3412    1.0000 </r>
       <r>   -5.1670    1.0000 </r>
       <r>   -5.1670    1.0000 </r>
       <r>   -4.5113    1.0000 </r>
       <r>   -4.5113    1.0000 </r>
       <r>   -3.9511    1.0000 </r>
       <r>   -3.9511    1.0000 </r>
       <r>    0.9373    1.0000 </r>
       <r>    0.9373    1.0000 </r>
       <r>    1.3079    1.0000 </r>
       <r>    1.3080    1.0000 </r>
       <r>    1.9766    1.0000 </r>
       <r>    1.9766    1.0000 </r>
       <r>    2.3359    1.0000 </r>
       <r>    2.3359    1.0000 </r>
       <r>    2.6996    1.0000 </r>
       <r>    2.6996    1.0000 </r>
       <r>    3.0815    1.0000 </r>
       <r>    3.0816    1.0000 </r>
       <r>    4.1313    1.0000 </r>
       <r>    4.1313    1.0000 </r>
       <r>    4.7574    1.0000 </r>
       <r>    4.7574    1.0000 </r>
       <r>    4.9118    1.0000 </r>
       <r>    4.9118    1.0000 </r>
       <r>    5.8865    0.0000 </r>
       <r>    5.8865    0.0000 </r>
       <r>    6.7543    0.0000 </r>
       <r>    6.7544    0.0000 </r>
       <r>    7.0829    0.0000 </r>
       <r>    7.0829    0.0000 </r>
       <r>    7.8907    0.0000 </r>
       <r>    7.8907    0.0000 </r>
       <r>    8.9024    0.0000 </r>
       <r>    8.9024    0.0000 </r>
       <r>    9.1291    0.0000 </r>
       <r>    9.1291    0.0000 </r>
       <r>   10.0885    0.0000 </r>
       <r>   10.0885    0.0000 </r>
       <r>   10.4572    0.0000 </r>
       <r>   10.4572    0.0000 </r>
       <r>   12.1145    0.0000 </r>
       <r>   12.1146    0.0000 </r>
       <r>   12.9281    0.0000 </r>
       <r>   12.9281    0.0000 </r>
       <r>   13.1434    0.0000 </r>
       <r>   13.1434    0.0000 </r>
       <r>   13.4062    0.0000 </r>
       <r>   13.4062    0.0000 </r>
       <r>   13.5423    0.0000 </r>
       <r>   13.5424    0.0000 </r>
       <r>   14.1351    0.0000 </r>
       <r>   14.1351    0.0000 </r>
       <r>   14.3005    0.0000 </r>
       <r>   14.3005    0.0000 </r>
       <r>   15.0094    0.0000 </r>
       <r>   15.0094    0.0000 </r>
       <r>   15.2665    0.0000 </r>
       <r>   15.2665    0.0000 </r>
       <r>   15.9850    0.0000 </r>
       <r>   15.9850    0.0000 </r>
       <r>   16.2254    0.0000 </r>
       <r>   16.2254    0.0000 </r>
       <r>   16.3078    0.0000 </r>
       <r>   16.3078    0.0000 </r>
       <r>   16.6945    0.0000 </r>
       <r>   16.6945    0.0000 </r>
       <r>   17.0388    0.0000 </r>
       <r>   17.0388    0.0000 </r>
       <r>   17.5341    0.0000 </r>
       <r>   17.5342    0.0000 </r>
       <r>   17.7572    0.0000 </r>
       <r>   17.7572    0.0000 </r>
       <r>   17.9142    0.0000 </r>
       <r>   17.9142    0.0000 </r>
       <r>   18.0904    0.0000 </r>
       <r>   18.0905    0.0000 </r>
       <r>   18.1947    0.0000 </r>
       <r>   18.1947    0.0000 </r>
       <r>   18.3964    0.0000 </r>
       <r>   18.3971    0.0000 </r>
       <r>   18.5527    0.0000 </r>
       <r>   18.5530    0.0000 </r>
       <r>   19.0761    0.0000 </r>
       <r>   19.0867    0.0000 </r>
      </set>
      <set comment="kpoint 12">
       <r>   -6.6114    1.0000 </r>
       <r>   -6.6113    1.0000 </r>
       <r>   -6.3867    1.0000 </r>
       <r>   -6.3867    1.0000 </r>
       <r>   -5.1501    1.0000 </r>
       <r>   -5.1501    1.0000 </r>
       <r>   -4.4992    1.0000 </r>
       <r>   -4.4992    1.0000 </r>
       <r>   -3.8722    1.0000 </r>
       <r>   -3.8722    1.0000 </r>
       <r>    0.9910    1.0000 </r>
       <r>    0.9910    1.0000 </r>
       <r>    1.3391    1.0000 </r>
       <r>    1.3392    1.0000 </r>
       <r>    2.0193    1.0000 </r>
       <r>    2.0193    1.0000 </r>
       <r>    2.3391    1.0000 </r>
       <r>    2.3391    1.0000 </r>
       <r>    2.7525    1.0000 </r>
       <r>    2.7525    1.0000 </r>
       <r>    3.0780    1.0000 </r>
       <r>    3.0780    1.0000 </r>
       <r>    4.1764    1.0000 </r>
       <r>    4.1764    1.0000 </r>
       <r>    4.7799    1.0000 </r>
       <r>    4.7799    1.0000 </r>
       <r>    4.9613    1.0000 </r>
       <r>    4.9613    1.0000 </r>
       <r>    5.8466    0.0000 </r>
       <r>    5.8466    0.0000 </r>
       <r>    6.7483    0.0000 </r>
       <r>    6.7483    0.0000 </r>
       <r>    7.0661    0.0000 </r>
       <r>    7.0661    0.0000 </r>
       <r>    7.8863    0.0000 </r>
       <r>    7.8863    0.0000 </r>
       <r>    8.9191    0.0000 </r>
       <r>    8.9191    0.0000 </r>
       <r>    9.1384    0.0000 </r>
       <r>    9.1384    0.0000 </r>
       <r>   10.0310    0.0000 </r>
       <r>   10.0310    0.0000 </r>
       <r>   10.4572    0.0000 </r>
       <r>   10.4572    0.0000 </r>
       <r>   11.9758    0.0000 </r>
       <r>   11.9758    0.0000 </r>
       <r>   12.8090    0.0000 </r>
       <r>   12.8090    0.0000 </r>
       <r>   13.0304    0.0000 </r>
       <r>   13.0304    0.0000 </r>
       <r>   13.3141    0.0000 </r>
       <r>   13.3141    0.0000 </r>
       <r>   13.4768    0.0000 </r>
       <r>   13.4769    0.0000 </r>
       <r>   14.1867    0.0000 </r>
       <r>   14.1868    0.0000 </r>
       <r>   14.3084    0.0000 </r>
       <r>   14.3084    0.0000 </r>
       <r>   14.8692    0.0000 </r>
       <r>   14.8693    0.0000 </r>
       <r>   15.1995    0.0000 </r>
       <r>   15.1995    0.0000 </r>
       <r>   15.9007    0.0000 </r>
       <r>   15.9007    0.0000 </r>
       <r>   16.1372    0.0000 </r>
       <r>   16.1372    0.0000 </r>
       <r>   16.2539    0.0000 </r>
       <r>   16.2540    0.0000 </r>
       <r>   16.6340    0.0000 </r>
       <r>   16.6340    0.0000 </r>
       <r>   16.9415    0.0000 </r>
       <r>   16.9415    0.0000 </r>
       <r>   17.3987    0.0000 </r>
       <r>   17.3988    0.0000 </r>
       <r>   17.7544    0.0000 </r>
       <r>   17.7545    0.0000 </r>
       <r>   17.9234    0.0000 </r>
       <r>   17.9235    0.0000 </r>
       <r>   18.0120    0.0000 </r>
       <r>   18.0120    0.0000 </r>
       <r>   18.2960    0.0000 </r>
       <r>   18.2961    0.0000 </r>
       <r>   18.5529    0.0000 </r>
       <r>   18.5532    0.0000 </r>
       <r>   18.6774    0.0000 </r>
       <r>   18.6780    0.0000 </r>
       <r>   19.0726    0.0000 </r>
[...]
       <r>    13.7746     0.0000     0.0000 </r>
       <r>    13.8807     0.0000     0.0000 </r>
       <r>    13.9868     0.0000     0.0000 </r>
       <r>    14.0929     0.0000     0.0000 </r>
       <r>    14.1989     0.0000     0.0000 </r>
       <r>    14.3050     0.0000     0.0000 </r>
       <r>    14.4111     0.0000     0.0000 </r>
       <r>    14.5172     0.0000     0.0000 </r>
       <r>    14.6233     0.0000     0.0000 </r>
       <r>    14.7293     0.0000     0.0000 </r>
       <r>    14.8354     0.0000     0.0000 </r>
       <r>    14.9415     0.0000     0.0000 </r>
       <r>    15.0476     0.0000     0.0000 </r>
       <r>    15.1536     0.0000     0.0000 </r>
       <r>    15.2597     0.0000     0.0000 </r>
       <r>    15.3658     0.0000     0.0000 </r>
       <r>    15.4719     0.0000     0.0000 </r>
       <r>    15.5780     0.0000     0.0000 </r>
       <r>    15.6840     0.0000     0.0000 </r>
       <r>    15.7901     0.0000     0.0000 </r>
       <r>    15.8962     0.0000     0.0000 </r>
       <r>    16.0023     0.0000     0.0000 </r>
       <r>    16.1084     0.0000     0.0000 </r>
       <r>    16.2144     0.0000     0.0000 </r>
       <r>    16.3205     0.0000     0.0000 </r>
       <r>    16.4266     0.0000     0.0000 </r>
       <r>    16.5327     0.0000     0.0000 </r>
       <r>    16.6388     0.0000     0.0000 </r>
       <r>    16.7448     0.0000     0.0000 </r>
       <r>    16.8509     0.0000     0.0000 </r>
       <r>    16.9570     0.0000     0.0000 </r>
       <r>    17.0631     0.0000     0.0000 </r>
       <r>    17.1691     0.0000     0.0000 </r>
       <r>    17.2752     0.0000     0.0000 </r>
       <r>    17.3813     0.0000     0.0000 </r>
       <r>    17.4874     0.0000     0.0000 </r>
       <r>    17.5935     0.0000     0.0000 </r>
       <r>    17.6995     0.0000     0.0000 </r>
       <r>    17.8056     0.0000     0.0000 </r>
       <r>    17.9117     0.0000     0.0000 </r>
       <r>    18.0178     0.0000     0.0000 </r>
       <r>    18.1239     0.0000     0.0000 </r>
       <r>    18.2299     0.0000     0.0000 </r>
       <r>    18.3360     0.0000     0.0000 </r>
       <r>    18.4421     0.0000     0.0000 </r>
       <r>    18.5482     0.0000     0.0000 </r>
       <r>    18.6542     0.0000     0.0000 </r>
       <r>    18.7603     0.0000     0.0000 </r>
       <r>    18.8664     0.0000     0.0000 </r>
       <r>    18.9725     0.0000     0.0000 </r>
       <r>    19.0786     0.0000     0.0000 </r>
       <r>    19.1846     0.0000     0.0000 </r>
       <r>    19.2907     0.0000     0.0000 </r>
       <r>    19.3968     0.0000     0.0000 </r>
       <r>    19.5029     0.0000     0.0000 </r>
       <r>    19.6090     0.0000     0.0000 </r>
       <r>    19.7150     0.0000     0.0000 </r>
       <r>    19.8211     0.0000     0.0000 </r>
       <r>    19.9272     0.0000     0.0000 </r>
       <r>    20.0333     0.0000     0.0000 </r>
       <r>    20.1393     0.0000     0.0000 </r>
       <r>    20.2454     0.0000     0.0000 </r>
       <r>    20.3515     0.0000     0.0000 </r>
       <r>    20.4576     0.0000     0.0000 </r>
       <r>    20.5637     0.0000     0.0000 </r>
       <r>    20.6697     0.0000     0.0000 </r>
       <r>    20.7758     0.0000     0.0000 </r>
       <r>    20.8819     0.0000     0.0000 </r>
       <r>    20.9880     0.0000     0.0000 </r>
       <r>    21.0941     0.0000     0.0000 </r>
       <r>    21.2001     0.0000     0.0000 </r>
       <r>    21.3062     0.0000     0.0000 </r>
       <r>    21.4123     0.0000     0.0000 </r>
       <r>    21.5184     0.0000     0.0000 </r>
       <r>    21.6245     0.0000     0.0000 </r>
       <r>    21.7305     0.0000     0.0000 </r>
       <r>    21.8366     0.0000     0.0000 </r>
       <r>    21.9427     0.0000     0.0000 </r>
       <r>    22.0488     0.0000     0.0000 </r>
       <r>    22.1548     0.0000     0.0000 </r>
       <r>    22.2609     0.0000     0.0000 </r>
       <r>    22.3670     0.0000     0.0000 </r>
       <r>    22.4731     0.0000     0.0000 </r>
       <r>    22.5792     0.0000     0.0000 </r>
       <r>    22.6852     0.0000     0.0000 </r>
      </set>
      <set comment="spin 4">
       <r>    -9.1384     0.0000     0.0000 </r>
       <r>    -9.0323     0.0000     0.0000 </r>
       <r>    -8.9262     0.0000     0.0000 </r>
       <r>    -8.8202     0.0000     0.0000 </r>
       <r>    -8.7141     0.0000     0.0000 </r>
       <r>    -8.6080     0.0000     0.0000 </r>
       <r>    -8.5019     0.0000     0.0000 </r>
       <r>    -8.3958     0.0000     0.0000 </r>
       <r>    -8.2898     0.0000     0.0000 </r>
       <r>    -8.1837     0.0000     0.0000 </r>
       <r>    -8.0776     0.0000     0.0000 </r>
       <r>    -7.9715     0.0000     0.0000 </r>
       <r>    -7.8654     0.0000     0.0000 </r>
       <r>    -7.7594     0.0000     0.0000 </r>
       <r>    -7.6533     0.0000     0.0000 </r>
       <r>    -7.5472     0.0000     0.0000 </r>
       <r>    -7.4411     0.0000     0.0000 </r>
       <r>    -7.3350     0.0000     0.0000 </r>
       <r>    -7.2290     0.0000     0.0000 </r>
       <r>    -7.1229     0.0000     0.0000 </r>
       <r>    -7.0168     0.0000     0.0000 </r>
       <r>    -6.9107     0.0000     0.0000 </r>
       <r>    -6.8047     0.0000     0.0000 </r>
       <r>    -6.6986     0.0000     0.0000 </r>
       <r>    -6.5925     0.0000     0.0000 </r>
       <r>    -6.4864     0.0000     0.0000 </r>
       <r>    -6.3803     0.0000     0.0000 </r>
       <r>    -6.2743     0.0000     0.0000 </r>
       <r>    -6.1682     0.0000     0.0000 </r>
       <r>    -6.0621     0.0000     0.0000 </r>
       <r>    -5.9560     0.0000     0.0000 </r>
       <r>    -5.8499     0.0000     0.0000 </r>
       <r>    -5.7439     0.0000     0.0000 </r>
       <r>    -5.6378     0.0000     0.0000 </r>
       <r>    -5.5317     0.0000     0.0000 </r>
       <r>    -5.4256     0.0000     0.0000 </r>
       <r>    -5.3196     0.0000     0.0000 </r>
       <r>    -5.2135     0.0000     0.0000 </r>
       <r>    -5.1074     0.0000     0.0000 </r>
       <r>    -5.0013     0.0000     0.0000 </r>
       <r>    -4.8952     0.0000     0.0000 </r>
       <r>    -4.7892     0.0000     0.0000 </r>
       <r>    -4.6831     0.0000     0.0000 </r>
       <r>    -4.5770     0.0000     0.0000 </r>
       <r>    -4.4709     0.0000     0.0000 </r>
       <r>    -4.3648     0.0000     0.0000 </r>
       <r>    -4.2588     0.0000     0.0000 </r>
       <r>    -4.1527     0.0000     0.0000 </r>
       <r>    -4.0466     0.0000     0.0000 </r>
       <r>    -3.9405     0.0000     0.0000 </r>
       <r>    -3.8344     0.0000     0.0000 </r>
       <r>    -3.7284     0.0000     0.0000 </r>
       <r>    -3.6223     0.0000     0.0000 </r>
       <r>    -3.5162     0.0000     0.0000 </r>
       <r>    -3.4101     0.0000     0.0000 </r>
       <r>    -3.3041     0.0000     0.0000 </r>
       <r>    -3.1980     0.0000     0.0000 </r>
       <r>    -3.0919     0.0000     0.0000 </r>
       <r>    -2.9858     0.0000     0.0000 </r>
       <r>    -2.8797     0.0000     0.0000 </r>
       <r>    -2.7737     0.0000     0.0000 </r>
       <r>    -2.6676     0.0000     0.0000 </r>
       <r>    -2.5615     0.0000     0.0000 </r>
       <r>    -2.4554     0.0000     0.0000 </r>
       <r>    -2.3493     0.0000     0.0000 </r>
       <r>    -2.2433     0.0000     0.0000 </r>
       <r>    -2.1372     0.0000     0.0000 </r>
       <r>    -2.0311     0.0000     0.0000 </r>
       <r>    -1.9250     0.0000     0.0000 </r>
       <r>    -1.8190     0.0000     0.0000 </r>
       <r>    -1.7129     0.0000     0.0000 </r>
       <r>    -1.6068     0.0000     0.0000 </r>
       <r>    -1.5007     0.0000     0.0000 </r>
       <r>    -1.3946     0.0000     0.0000 </r>
       <r>    -1.2886     0.0000     0.0000 </r>
       <r>    -1.1825     0.0000     0.0000 </r>
       <r>    -1.0764     0.0000     0.0000 </r>
       <r>    -0.9703     0.0000     0.0000 </r>
       <r>    -0.8642     0.0000     0.0000 </r>
       <r>    -0.7582     0.0000     0.0000 </r>
       <r>    -0.6521     0.0000     0.0000 </r>
       <r>    -0.5460     0.0000     0.0000 </r>
       <r>    -0.4399     0.0000     0.0000 </r>
       <r>    -0.3339     0.0000     0.0000 </r>
       <r>    -0.2278     0.0000     0.0000 </r>
       <r>    -0.1217     0.0000     0.0000 </r>
       <r>    -0.0156     0.0000     0.0000 </r>
       <r>     0.0905     0.0000     0.0000 </r>
       <r>     0.1965     0.0000     0.0000 </r>
       <r>     0.3026     0.0000     0.0000 </r>
       <r>     0.4087     0.0000     0.0000 </r>
       <r>     0.5148     0.0000     0.0000 </r>
       <r>     0.6209     0.0000     0.0000 </r>
       <r>     0.7269     0.0000     0.0000 </r>
       <r>     0.8330     0.0000     0.0000 </r>
       <r>     0.9391     0.0000     0.0000 </r>
       <r>     1.0452     0.0000     0.0000 </r>
       <r>     1.1513     0.0000     0.0000 </r>
       <r>     1.2573     0.0000     0.0000 </r>
       <r>     1.3634     0.0000     0.0000 </r>
       <r>     1.4695     0.0000     0.0000 </r>
       <r>     1.5756     0.0000     0.0000 </r>
       <r>     1.6816     0.0000     0.0000 </r>
       <r>     1.7877     0.0000     0.0000 </r>
       <r>     1.8938     0.0000     0.0000 </r>
       <r>     1.9999     0.0000     0.0000 </r>
       <r>     2.1060     0.0000     0.0000 </r>
       <r>     2.2120     0.0000     0.0000 </r>
       <r>     2.3181     0.0000     0.0000 </r>
       <r>     2.4242     0.0000     0.0000 </r>
       <r>     2.5303     0.0000     0.0000 </r>
       <r>     2.6364     0.0000     0.0000 </r>
       <r>     2.7424     0.0000     0.0000 </r>
       <r>     2.8485     0.0000     0.0000 </r>
       <r>     2.9546     0.0000     0.0000 </r>
       <r>     3.0607     0.0000     0.0000 </r>
       <r>     3.1667     0.0000     0.0000 </r>
       <r>     3.2728     0.0000     0.0000 </r>
       <r>     3.3789     0.0000     0.0000 </r>
       <r>     3.4850     0.0000     0.0000 </r>
       <r>     3.5911     0.0000     0.0000 </r>
       <r>     3.6971     0.0000     0.0000 </r>
       <r>     3.8032     0.0000     0.0000 </r>
       <r>     3.9093     0.0000     0.0000 </r>
       <r>     4.0154     0.0000     0.0000 </r>
       <r>     4.1215     0.0000     0.0000 </r>
       <r>     4.2275     0.0000     0.0000 </r>
       <r>     4.3336     0.0000     0.0000 </r>
       <r>     4.4397     0.0000     0.0000 </r>
       <r>     4.5458     0.0000     0.0000 </r>
       <r>     4.6519     0.0000     0.0000 </r>
       <r>     4.7579     0.0000     0.0000 </r>
       <r>     4.8640     0.0000     0.0000 </r>
       <r>     4.9701     0.0000     0.0000 </r>
       <r>     5.0762     0.0000     0.0000 </r>
       <r>     5.1822     0.0000     0.0000 </r>
       <r>     5.2883     0.0000     0.0000 </r>
       <r>     5.3944     0.0000     0.0000 </r>
       <r>     5.5005     0.0000     0.0000 </r>
       <r>     5.6066     0.0000     0.0000 </r>
       <r>     5.7126     0.0000     0.0000 </r>
       <r>     5.8187     0.0000     0.0000 </r>
       <r>     5.9248     0.0000     0.0000 </r>
       <r>     6.0309     0.0000     0.0000 </r>
       <r>     6.1370     0.0000     0.0000 </r>
       <r>     6.2430     0.0000     0.0000 </r>
       <r>     6.3491     0.0000     0.0000 </r>
       <r>     6.4552     0.0000     0.0000 </r>
       <r>     6.5613     0.0000     0.0000 </r>
       <r>     6.6673     0.0000     0.0000 </r>
       <r>     6.7734     0.0000     0.0000 </r>
       <r>     6.8795     0.0000     0.0000 </r>
       <r>     6.9856     0.0000     0.0000 </r>
       <r>     7.0917     0.0000     0.0000 </r>
       <r>     7.1977     0.0000     0.0000 </r>
       <r>     7.3038     0.0000     0.0000 </r>
       <r>     7.4099     0.0000     0.0000 </r>
       <r>     7.5160     0.0000     0.0000 </r>
       <r>     7.6221     0.0000     0.0000 </r>
       <r>     7.7281     0.0000     0.0000 </r>
       <r>     7.8342     0.0000     0.0000 </r>
       <r>     7.9403     0.0000     0.0000 </r>
       <r>     8.0464     0.0000     0.0000 </r>
       <r>     8.1525     0.0000     0.0000 </r>
       <r>     8.2585     0.0000     0.0000 </r>
       <r>     8.3646     0.0000     0.0000 </r>
       <r>     8.4707     0.0000     0.0000 </r>
       <r>     8.5768     0.0000     0.0000 </r>
       <r>     8.6828     0.0000     0.0000 </r>
       <r>     8.7889     0.0000     0.0000 </r>
       <r>     8.8950     0.0000     0.0000 </r>
       <r>     9.0011     0.0000     0.0000 </r>
       <r>     9.1072     0.0000     0.0000 </r>
       <r>     9.2132     0.0000     0.0000 </r>
       <r>     9.3193     0.0000     0.0000 </r>
       <r>     9.4254     0.0000     0.0000 </r>
       <r>     9.5315     0.0000     0.0000 </r>
       <r>     9.6376     0.0000     0.0000 </r>
       <r>     9.7436     0.0000     0.0000 </r>
       <r>     9.8497     0.0000     0.0000 </r>
       <r>     9.9558     0.0000     0.0000 </r>
       <r>    10.0619     0.0000     0.0000 </r>
       <r>    10.1679     0.0000     0.0000 </r>
       <r>    10.2740     0.0000     0.0000 </r>
       <r>    10.3801     0.0000     0.0000 </r>
       <r>    10.4862     0.0000     0.0000 </r>
       <r>    10.5923     0.0000     0.0000 </r>
       <r>    10.6983     0.0000     0.0000 </r>
       <r>    10.8044     0.0000     0.0000 </r>
       <r>    10.9105     0.0000     0.0000 </r>
       <r>    11.0166     0.0000     0.0000 </r>
       <r>    11.1227     0.0000     0.0000 </r>
       <r>    11.2287     0.0000     0.0000 </r>
       <r>    11.3348     0.0000     0.0000 </r>
       <r>    11.4409     0.0000     0.0000 </r>
       <r>    11.5470     0.0000     0.0000 </r>
       <r>    11.6530     0.0000     0.0000 </r>
       <r>    11.7591     0.0000     0.0000 </r>
       <r>    11.8652     0.0000     0.0000 </r>
       <r>    11.9713     0.0000     0.0000 </r>
       <r>    12.0774     0.0000     0.0000 </r>
       <r>    12.1834     0.0000     0.0000 </r>
       <r>    12.2895     0.0000     0.0000 </r>
       <r>    12.3956     0.0000     0.0000 </r>
       <r>    12.5017     0.0000     0.0000 </r>
       <r>    12.6078     0.0000     0.0000 </r>
       <r>    12.7138     0.0000     0.0000 </r>
       <r>    12.8199     0.0000     0.0000 </r>
       <r>    12.9260     0.0000     0.0000 </r>
       <r>    13.0321     0.0000     0.0000 </r>
       <r>    13.1382     0.0000     0.0000 </r>
       <r>    13.2442     0.0000     0.0000 </r>
       <r>    13.3503     0.0000     0.0000 </r>
       <r>    13.4564     0.0000     0.0000 </r>
       <r>    13.5625     0.0000     0.0000 </r>
       <r>    13.6685     0.0000     0.0000 </r>
       <r>    13.7746     0.0000     0.0000 </r>
       <r>    13.8807     0.0000     0.0000 </r>
       <r>    13.9868     0.0000     0.0000 </r>
       <r>    14.0929     0.0000     0.0000 </r>
       <r>    14.1989     0.0000     0.0000 </r>
       <r>    14.3050     0.0000     0.0000 </r>
       <r>    14.4111     0.0000     0.0000 </r>
       <r>    14.5172     0.0000     0.0000 </r>
       <r>    14.6233     0.0000     0.0000 </r>
       <r>    14.7293     0.0000     0.0000 </r>
       <r>    14.8354     0.0000     0.0000 </r>
       <r>    14.9415     0.0000     0.0000 </r>
       <r>    15.0476     0.0000     0.0000 </r>
       <r>    15.1536     0.0000     0.0000 </r>
       <r>    15.2597     0.0000     0.0000 </r>
       <r>    15.3658     0.0000     0.0000 </r>
       <r>    15.4719     0.0000     0.0000 </r>
       <r>    15.5780     0.0000     0.0000 </r>
       <r>    15.6840     0.0000     0.0000 </r>
       <r>    15.7901     0.0000     0.0000 </r>
       <r>    15.8962     0.0000     0.0000 </r>
       <r>    16.0023     0.0000     0.0000 </r>
       <r>    16.1084     0.0000     0.0000 </r>
       <r>    16.2144     0.0000     0.0000 </r>
       <r>    16.3205     0.0000     0.0000 </r>
       <r>    16.4266     0.0000     0.0000 </r>
       <r>    16.5327     0.0000     0.0000 </r>
       <r>    16.6388     0.0000     0.0000 </r>
       <r>    16.7448     0.0000     0.0000 </r>
       <r>    16.8509     0.0000     0.0000 </r>
       <r>    16.9570     0.0000     0.0000 </r>
       <r>    17.0631     0.0000     0.0000 </r>
       <r>    17.1691     0.0000     0.0000 </r>
       <r>    17.2752     0.0000     0.0000 </r>
       <r>    17.3813     0.0000     0.0000 </r>
       <r>    17.4874     0.0000     0.0000 </r>
       <r>    17.5935     0.0000     0.0000 </r>
       <r>    17.6995     0.0000     0.0000 </r>
       <r>    17.8056     0.0000     0.0000 </r>
       <r>    17.9117     0.0000     0.0000 </r>
       <r>    18.0178     0.0000     0.0000 </r>
       <r>    18.1239     0.0000     0.0000 </r>
       <r>    18.2299     0.0000     0.0000 </r>
       <r>    18.3360     0.0000     0.0000 </r>
       <r>    18.4421     0.0000     0.0000 </r>
       <r>    18.5482     0.0000     0.0000 </r>
       <r>    18.6542     0.0000     0.0000 </r>
       <r>    18.7603     0.0000     0.0000 </r>
       <r>    18.8664     0.0000     0.0000 </r>
       <r>    18.9725     0.0000     0.0000 </r>
       <r>    19.0786     0.0000     0.0000 </r>
       <r>    19.1846     0.0000     0.0000 </r>
       <r>    19.2907     0.0000     0.0000 </r>
       <r>    19.3968     0.0000     0.0000 </r>
       <r>    19.5029     0.0000     0.0000 </r>
       <r>    19.6090     0.0000     0.0000 </r>
       <r>    19.7150     0.0000     0.0000 </r>
       <r>    19.8211     0.0000     0.0000 </r>
       <r>    19.9272     0.0000     0.0000 </r>
       <r>    20.0333     0.0000     0.0000 </r>
       <r>    20.1393     0.0000     0.0000 </r>
       <r>    20.2454     0.0000     0.0000 </r>
       <r>    20.3515     0.0000     0.0000 </r>
       <r>    20.4576     0.0000     0.0000 </r>
       <r>    20.5637     0.0000     0.0000 </r>
       <r>    20.6697     0.0000     0.0000 </r>
       <r>    20.7758     0.0000     0.0000 </r>
       <r>    20.8819     0.0000     0.0000 </r>
       <r>    20.9880     0.0000     0.0000 </r>
       <r>    21.0941     0.0000     0.0000 </r>
       <r>    21.2001     0.0000     0.0000 </r>
       <r>    21.3062     0.0000     0.0000 </r>
       <r>    21.4123     0.0000     0.0000 </r>
       <r>    21.5184     0.0000     0.0000 </r>
       <r>    21.6245     0.0000     0.0000 </r>
       <r>    21.7305     0.0000     0.0000 </r>
       <r>    21.8366     0.0000     0.0000 </r>
       <r>    21.9427     0.0000     0.0000 </r>
       <r>    22.0488     0.0000     0.0000 </r>
       <r>    22.1548     0.0000     0.0000 </r>
       <r>    22.2609     0.0000     0.0000 </r>
       <r>    22.3670     0.0000     0.0000 </r>
       <r>    22.4731     0.0000     0.0000 </r>
       <r>    22.5792     0.0000     0.0000 </r>
       <r>    22.6852     0.0000     0.0000 </r>
      </set>
     </set>
    </array>
   </total>
  </dos>
 </calculation>
 <structure name="finalpos" >
  <crystal>
   <varray name="basis" >
    <v>      10.26342645      -2.21881605       0.00000000 </v>
    <v>      10.26342645       2.21881605       0.00000000 </v>
    <v>       9.78374798       0.00000000       3.81304899 </v>
   </varray>
   <i name="volume">    173.66650063 </i>
   <varray name="rec_basis" >
    <v>       0.04871667      -0.22534540      -0.12500014 </v>
    <v>       0.04871667       0.22534540      -0.12500014 </v>
    <v>      -0.00000000       0.00000000       0.26225732 </v>
   </varray>
  </crystal>
  <varray name="positions" >
   <v>       0.39959548       0.39959548       0.39959548 </v>
   <v>       0.60040452       0.60040452       0.60040452 </v>
   <v>       0.00000000       0.00000000       0.00000000 </v>
   <v>       0.21094281       0.21094281       0.21094281 </v>
   <v>       0.78905719       0.78905719       0.78905719 </v>
  </varray>
 </structure>
</modeling>
