<?xml version="1.0" encoding="ISO-8859-1"?>
<modeling>
 <generator>
  <i name="program" type="string">vasp </i>
  <i name="version" type="string">5.4.4.18Apr17-6-g9f103f2a35  </i>
  <i name="subversion" type="string">(build Mar 20 2018 18:01:20) complex            parallel </i>
  <i name="platform" type="string">LinuxGNU </i>
  <i name="date" type="string">2020 04 25 </i>
  <i name="time" type="string">11:18:41 </i>
 </generator>
 <incar>
  <i type="string" name="SYSTEM"> SnSe</i>
  <i type="int" name="ISTART">     1</i>
  <i type="string" name="PREC">accurate</i>
  <i type="string" name="ALGO"> A</i>
  <i type="logical" name="ADDGRID"> T  </i>
  <i type="int" name="ICHARG">    11</i>
  <i name="EDIFF">      0.00000010</i>
  <i name="ENCUT">    600.00000000</i>
  <i type="int" name="NBANDS">    60</i>
  <i type="string" name="LREAL"> Auto</i>
  <i type="logical" name="LPLANE"> T  </i>
  <i type="int" name="ISMEAR">     0</i>
  <i name="SIGMA">      0.05000000</i>
  <v type="int" name="KPOINT_BSE">    -1     0     0     0</v>
 </incar>
 <structure name="primitive_cell" >
  <crystal>
   <varray name="basis" >
    <v>       4.16842225       0.00000000       0.00000000 </v>
    <v>       0.00000000       4.53967086       0.00000000 </v>
    <v>       0.00000000       0.00000000      11.56850013 </v>
   </varray>
   <i name="volume">    218.91379385 </i>
   <varray name="rec_basis" >
    <v>       0.23989892      -0.00000000       0.00000000 </v>
    <v>       0.00000000       0.22028029       0.00000000 </v>
    <v>      -0.00000000      -0.00000000       0.08644163 </v>
   </varray>
  </crystal>
  <varray name="positions" >
   <v>       0.25000000       0.11238621       0.11664596 </v>
   <v>       0.25000000       0.01916418       0.35489350 </v>
   <v>      -0.25000000      -0.48083582       0.14510650 </v>
   <v>       0.25000000       0.48083582      -0.14510650 </v>
   <v>      -0.25000000      -0.11238621      -0.11664596 </v>
   <v>      -0.25000000      -0.38761379       0.38335404 </v>
   <v>      -0.25000000      -0.01916418      -0.35489350 </v>
   <v>       0.25000000       0.38761379      -0.38335404 </v>
  </varray>
 </structure>
 <varray name="primitive_index" >
  <v type="int" >        1 </v>
  <v type="int" >        7 </v>
  <v type="int" >        5 </v>
  <v type="int" >        6 </v>
  <v type="int" >        2 </v>
  <v type="int" >        3 </v>
  <v type="int" >        8 </v>
  <v type="int" >        4 </v>
 </varray>
 <kpoints>
  <varray name="kpointlist" >
   <v>       0.00000000       0.33333333       0.00000000 </v>
   <v>      -0.02507383       0.33333333       0.00000000 </v>
   <v>      -0.01253692       0.33333333       0.00000000 </v>
   <v>       0.01253692       0.33333333       0.00000000 </v>
   <v>       0.02507383       0.33333333       0.00000000 </v>
   <v>       0.00000000       0.30602637       0.00000000 </v>
   <v>       0.00000000       0.31967985       0.00000000 </v>
   <v>       0.00000000       0.34698681       0.00000000 </v>
   <v>       0.00000000       0.36064029       0.00000000 </v>
   <v>       0.00000000       0.33333333      -0.06958667 </v>
   <v>       0.00000000       0.33333333      -0.03479333 </v>
   <v>       0.00000000       0.33333333       0.03479333 </v>
   <v>       0.00000000       0.33333333       0.06958667 </v>
   <v>      -0.02507383       0.30602637       0.00000000 </v>
   <v>      -0.01253692       0.30602637       0.00000000 </v>
   <v>       0.01253692       0.30602637       0.00000000 </v>
   <v>       0.02507383       0.30602637       0.00000000 </v>
   <v>      -0.02507383       0.31967985       0.00000000 </v>
   <v>      -0.01253692       0.31967985       0.00000000 </v>
   <v>       0.01253692       0.31967985       0.00000000 </v>
   <v>       0.02507383       0.31967985       0.00000000 </v>
   <v>      -0.02507383       0.34698681       0.00000000 </v>
   <v>      -0.01253692       0.34698681       0.00000000 </v>
   <v>       0.01253692       0.34698681       0.00000000 </v>
   <v>       0.02507383       0.34698681       0.00000000 </v>
   <v>      -0.02507383       0.36064029       0.00000000 </v>
   <v>      -0.01253692       0.36064029       0.00000000 </v>
   <v>       0.01253692       0.36064029       0.00000000 </v>
   <v>       0.02507383       0.36064029       0.00000000 </v>
   <v>      -0.02507383       0.33333333      -0.06958667 </v>
   <v>      -0.01253692       0.33333333      -0.06958667 </v>
   <v>       0.01253692       0.33333333      -0.06958667 </v>
   <v>       0.02507383       0.33333333      -0.06958667 </v>
   <v>      -0.02507383       0.33333333      -0.03479333 </v>
   <v>      -0.01253692       0.33333333      -0.03479333 </v>
   <v>       0.01253692       0.33333333      -0.03479333 </v>
   <v>       0.02507383       0.33333333      -0.03479333 </v>
   <v>      -0.02507383       0.33333333       0.03479333 </v>
   <v>      -0.01253692       0.33333333       0.03479333 </v>
   <v>       0.01253692       0.33333333       0.03479333 </v>
   <v>       0.02507383       0.33333333       0.03479333 </v>
   <v>      -0.02507383       0.33333333       0.06958667 </v>
   <v>      -0.01253692       0.33333333       0.06958667 </v>
   <v>       0.01253692       0.33333333       0.06958667 </v>
   <v>       0.02507383       0.33333333       0.06958667 </v>
   <v>       0.00000000       0.30602637      -0.06958667 </v>
   <v>       0.00000000       0.31967985      -0.06958667 </v>
   <v>       0.00000000       0.34698681      -0.06958667 </v>
   <v>       0.00000000       0.36064029      -0.06958667 </v>
   <v>       0.00000000       0.30602637      -0.03479333 </v>
   <v>       0.00000000       0.31967985      -0.03479333 </v>
   <v>       0.00000000       0.34698681      -0.03479333 </v>
   <v>       0.00000000       0.36064029      -0.03479333 </v>
   <v>       0.00000000       0.30602637       0.03479333 </v>
   <v>       0.00000000       0.31967985       0.03479333 </v>
   <v>       0.00000000       0.34698681       0.03479333 </v>
   <v>       0.00000000       0.36064029       0.03479333 </v>
   <v>       0.00000000       0.30602637       0.06958667 </v>
   <v>       0.00000000       0.31967985       0.06958667 </v>
   <v>       0.00000000       0.34698681       0.06958667 </v>
   <v>       0.00000000       0.36064029       0.06958667 </v>
  </varray>
  <varray name="weights" >
   <v>       0.01639344 </v>
   <v>       0.01639344 </v>
   <v>       0.01639344 </v>
   <v>       0.01639344 </v>
   <v>       0.01639344 </v>
   <v>       0.01639344 </v>
   <v>       0.01639344 </v>
   <v>       0.01639344 </v>
   <v>       0.01639344 </v>
   <v>       0.01639344 </v>
   <v>       0.01639344 </v>
   <v>       0.01639344 </v>
   <v>       0.01639344 </v>
   <v>       0.01639344 </v>
   <v>       0.01639344 </v>
   <v>       0.01639344 </v>
   <v>       0.01639344 </v>
   <v>       0.01639344 </v>
   <v>       0.01639344 </v>
   <v>       0.01639344 </v>
   <v>       0.01639344 </v>
   <v>       0.01639344 </v>
   <v>       0.01639344 </v>
   <v>       0.01639344 </v>
   <v>       0.01639344 </v>
   <v>       0.01639344 </v>
   <v>       0.01639344 </v>
   <v>       0.01639344 </v>
   <v>       0.01639344 </v>
   <v>       0.01639344 </v>
   <v>       0.01639344 </v>
   <v>       0.01639344 </v>
   <v>       0.01639344 </v>
   <v>       0.01639344 </v>
   <v>       0.01639344 </v>
   <v>       0.01639344 </v>
   <v>       0.01639344 </v>
   <v>       0.01639344 </v>
   <v>       0.01639344 </v>
   <v>       0.01639344 </v>
   <v>       0.01639344 </v>
   <v>       0.01639344 </v>
   <v>       0.01639344 </v>
   <v>       0.01639344 </v>
   <v>       0.01639344 </v>
   <v>       0.01639344 </v>
   <v>       0.01639344 </v>
   <v>       0.01639344 </v>
   <v>       0.01639344 </v>
   <v>       0.01639344 </v>
   <v>       0.01639344 </v>
   <v>       0.01639344 </v>
   <v>       0.01639344 </v>
   <v>       0.01639344 </v>
   <v>       0.01639344 </v>
   <v>       0.01639344 </v>
   <v>       0.01639344 </v>
   <v>       0.01639344 </v>
   <v>       0.01639344 </v>
   <v>       0.01639344 </v>
   <v>       0.01639344 </v>
  </varray>
 </kpoints>
 <parameters>
  <separator name="general" >
   <i type="string" name="SYSTEM">SnSe</i>
   <i type="logical" name="LCOMPAT"> F  </i>
  </separator>
  <separator name="electronic" >
   <i type="string" name="PREC">accura</i>
   <i name="ENMAX">    600.00000000</i>
   <i name="ENAUG">    446.84200000</i>
   <i name="EDIFF">      0.00000010</i>
   <i type="int" name="IALGO">    58</i>
   <i type="int" name="IWAVPR">    10</i>
   <i type="int" name="NBANDS">    60</i>
   <i name="NELECT">     80.00000000</i>
   <i type="int" name="TURBO">     0</i>
   <i type="int" name="IRESTART">     0</i>
   <i type="int" name="NREBOOT">     0</i>
   <i type="int" name="NMIN">     0</i>
   <i name="EREF">      0.00000000</i>
   <separator name="electronic smearing" >
    <i type="int" name="ISMEAR">     0</i>
    <i name="SIGMA">      0.05000000</i>
    <i name="KSPACING">      0.50000000</i>
    <i type="logical" name="KGAMMA"> T  </i>
   </separator>
   <separator name="electronic projectors" >
    <i type="logical" name="LREAL"> T  </i>
    <v name="ROPT">     -0.00025000     -0.00025000</v>
    <i type="int" name="LMAXPAW">  -100</i>
    <i type="int" name="LMAXMIX">     2</i>
    <i type="logical" name="NLSPLINE"> F  </i>
   </separator>
   <separator name="electronic startup" >
    <i type="int" name="ISTART">     0</i>
    <i type="int" name="ICHARG">    11</i>
    <i type="int" name="INIWAV">     1</i>
   </separator>
   <separator name="electronic spin" >
    <i type="int" name="ISPIN">     1</i>
    <i type="logical" name="LNONCOLLINEAR"> F  </i>
    <v name="MAGMOM">      1.00000000      1.00000000      1.00000000      1.00000000      1.00000000      1.00000000      1.00000000      1.00000000</v>
    <i name="NUPDOWN">     -1.00000000</i>
    <i type="logical" name="LSORBIT"> F  </i>
    <v name="SAXIS">      0.00000000      0.00000000      1.00000000</v>
    <i type="logical" name="LSPIRAL"> F  </i>
    <v name="QSPIRAL">      0.00000000      0.00000000      0.00000000</v>
    <i type="logical" name="LZEROZ"> F  </i>
   </separator>
   <separator name="electronic exchange-correlation" >
    <i type="logical" name="LASPH"> F  </i>
    <i type="logical" name="LMETAGGA"> F  </i>
   </separator>
   <separator name="electronic convergence" >
    <i type="int" name="NELM">    60</i>
    <i type="int" name="NELMDL">     0</i>
    <i type="int" name="NELMIN">     2</i>
    <i name="ENINI">    600.00000000</i>
    <separator name="electronic convergence detail" >
     <i type="logical" name="LDIAG"> T  </i>
     <i type="logical" name="LSUBROT"> F  </i>
     <i name="WEIMIN">      0.00000000</i>
     <i name="EBREAK">      0.00000000</i>
     <i name="DEPER">      0.30000000</i>
     <i type="int" name="NRMM">     4</i>
     <i name="TIME">      0.40000000</i>
    </separator>
   </separator>
   <separator name="electronic mixer" >
    <i name="AMIX">      0.40000000</i>
    <i name="BMIX">      1.00000000</i>
    <i name="AMIN">      0.10000000</i>
    <i name="AMIX_MAG">      1.60000000</i>
    <i name="BMIX_MAG">      1.00000000</i>
    <separator name="electronic mixer details" >
     <i type="int" name="IMIX">     4</i>
     <i type="logical" name="MIXFIRST"> F  </i>
     <i type="int" name="MAXMIX">   -45</i>
     <i name="WC">    100.00000000</i>
     <i type="int" name="INIMIX">     1</i>
     <i type="int" name="MIXPRE">     1</i>
     <i type="int" name="MREMOVE">     5</i>
    </separator>
   </separator>
   <separator name="electronic dipolcorrection" >
    <i type="logical" name="LDIPOL"> F  </i>
    <i type="logical" name="LMONO"> F  </i>
    <i type="int" name="IDIPOL">     0</i>
    <i name="EPSILON">      1.00000000</i>
    <v name="DIPOL">   -100.00000000   -100.00000000   -100.00000000</v>
    <i name="EFIELD">      0.00000000</i>
   </separator>
  </separator>
  <separator name="grids" >
   <i type="int" name="NGX">    36</i>
   <i type="int" name="NGY">    36</i>
   <i type="int" name="NGZ">    96</i>
   <i type="int" name="NGXF">    72</i>
   <i type="int" name="NGYF">    72</i>
   <i type="int" name="NGZF">   192</i>
   <i type="logical" name="ADDGRID"> T  </i>
  </separator>
  <separator name="ionic" >
   <i type="int" name="NSW">     0</i>
   <i type="int" name="IBRION">    -1</i>
   <i type="int" name="MDALGO">     0</i>
   <i type="int" name="ISIF">     2</i>
   <i name="PSTRESS">      0.00000000</i>
   <i name="EDIFFG">      0.00000100</i>
   <i type="int" name="NFREE">     0</i>
   <i name="POTIM">      0.50000000</i>
   <i name="SMASS">     -3.00000000</i>
   <i name="SCALEE">      1.00000000</i>
  </separator>
  <separator name="ionic md" >
   <i name="TEBEG">      0.00010000</i>
   <i name="TEEND">      0.00010000</i>
   <i type="int" name="NBLOCK">     1</i>
   <i type="int" name="KBLOCK">     1</i>
   <i type="int" name="NPACO">   256</i>
   <i name="APACO">     16.00000000</i>
  </separator>
  <separator name="symmetry" >
   <i type="int" name="ISYM">     2</i>
   <i name="SYMPREC">      0.00001000</i>
  </separator>
  <separator name="dos" >
   <i type="int" name="LORBIT">     0</i>
   <v name="RWIGS">     -1.00000000     -1.00000000</v>
   <i type="int" name="NEDOS">   301</i>
   <i name="EMIN">     10.00000000</i>
   <i name="EMAX">    -10.00000000</i>
   <i name="EFERMI">      0.00000000</i>
  </separator>
  <separator name="writing" >
   <i type="int" name="NWRITE">     2</i>
   <i type="logical" name="LWAVE"> T  </i>
   <i type="logical" name="LDOWNSAMPLE"> F  </i>
   <i type="logical" name="LCHARG"> T  </i>
   <i type="logical" name="LPARD"> F  </i>
   <i type="logical" name="LVTOT"> F  </i>
   <i type="logical" name="LVHAR"> F  </i>
   <i type="logical" name="LELF"> F  </i>
   <i type="logical" name="LOPTICS"> F  </i>
   <v name="STM">      0.00000000      0.00000000      0.00000000      0.00000000      0.00000000      0.00000000      0.00000000</v>
  </separator>
  <separator name="performance" >
   <i type="int" name="NPAR">     4</i>
   <i type="int" name="NSIM">     4</i>
   <i type="int" name="NBLK">    -1</i>
   <i type="logical" name="LPLANE"> T  </i>
   <i type="logical" name="LSCALAPACK"> T  </i>
   <i type="logical" name="LSCAAWARE"> F  </i>
   <i type="logical" name="LSCALU"> F  </i>
   <i type="logical" name="LASYNC"> F  </i>
   <i type="logical" name="LORBITALREAL"> F  </i>
  </separator>
  <separator name="miscellaneous" >
   <i type="int" name="IDIOT">     3</i>
   <i type="int" name="ISPECIAL">     0</i>
   <i type="logical" name="LMUSIC"> F  </i>
   <v name="POMASS">    118.71000000     78.96000000</v>
   <v name="DARWINR">      0.00000000      0.00000000</v>
   <v name="DARWINV">      1.00000000      1.00000000</v>
   <i type="logical" name="LCORR"> T  </i>
  </separator>
  <i type="logical" name="GGA_COMPAT"> T  </i>
  <i type="logical" name="LBERRY"> F  </i>
  <i type="int" name="ICORELEVEL">     0</i>
  <i type="logical" name="LDAU"> F  </i>
  <i type="int" name="I_CONSTRAINED_M">     0</i>
  <separator name="electronic exchange-correlation" >
   <i type="string" name="GGA">--</i>
   <i type="int" name="VOSKOWN">     0</i>
   <i type="logical" name="LHFCALC"> F  </i>
   <i type="string" name="PRECFOCK"></i>
   <i type="logical" name="LSYMGRAD"> F  </i>
   <i type="logical" name="LHFONE"> F  </i>
   <i type="logical" name="LRHFCALC"> F  </i>
   <i type="logical" name="LTHOMAS"> F  </i>
   <i type="logical" name="LMODELHF"> F  </i>
   <i name="ENCUT4O">     -1.00000000</i>
   <i type="int" name="EXXOEP">     0</i>
   <i type="int" name="FOURORBIT">     0</i>
   <i name="AEXX">      0.00000000</i>
   <i name="HFALPHA">      0.00000000</i>
   <i name="MCALPHA">      0.00000000</i>
   <i name="ALDAX">      1.00000000</i>
   <i name="AGGAX">      1.00000000</i>
   <i name="ALDAC">      1.00000000</i>
   <i name="AGGAC">      1.00000000</i>
   <i type="int" name="NKREDX">     1</i>
   <i type="int" name="NKREDY">     1</i>
   <i type="int" name="NKREDZ">     1</i>
   <i type="logical" name="SHIFTRED"> F  </i>
   <i type="logical" name="ODDONLY"> F  </i>
   <i type="logical" name="EVENONLY"> F  </i>
   <i type="int" name="LMAXFOCK">     0</i>
   <i type="int" name="NMAXFOCKAE">     0</i>
   <i type="logical" name="LFOCKAEDFT"> F  </i>
   <i name="HFSCREEN">      0.00000000</i>
   <i name="HFSCREENC">      0.00000000</i>
   <i type="int" name="NBANDSGWLOW">     0</i>
  </separator>
  <separator name="vdW DFT" >
   <i type="logical" name="LUSE_VDW"> F  </i>
   <i name="Zab_VDW">     -0.84910000</i>
   <i name="PARAM1">      0.12340000</i>
   <i name="PARAM2">      1.00000000</i>
   <i name="PARAM3">      0.00000000</i>
  </separator>
  <separator name="model GW" >
   <i type="int" name="MODEL_GW">     0</i>
   <i name="MODEL_EPS0">     16.41853454</i>
   <i name="MODEL_ALPHA">      1.00000000</i>
  </separator>
  <separator name="linear response parameters" >
   <i type="logical" name="LEPSILON"> F  </i>
   <i type="logical" name="LRPA"> F  </i>
   <i type="logical" name="LNABLA"> F  </i>
   <i type="logical" name="LVEL"> F  </i>
   <i type="int" name="KINTER">     0</i>
   <i name="CSHIFT">      0.10000000</i>
   <i name="OMEGAMAX">     -1.00000000</i>
   <i name="DEG_THRESHOLD">      0.00200000</i>
   <i name="RTIME">     -0.10000000</i>
   <i name="WPLASMAI">      0.00000000</i>
   <v name="DFIELD">      0.00000000      0.00000000      0.00000000</v>
   <v name="WPLASMA">      0.00000000      0.00000000      0.00000000      0.00000000      0.00000000      0.00000000      0.00000000      0.00000000      0.00000000</v>
  </separator>
  <separator name="orbital magnetization" >
   <i type="logical" name="NUCIND"> F  </i>
   <v name="MAGPOS">      0.00000000      0.00000000      0.00000000</v>
   <i type="logical" name="LNICSALL"> T  </i>
   <i type="logical" name="ORBITALMAG"> F  </i>
   <i type="logical" name="LMAGBLOCH"> F  </i>
   <i type="logical" name="LCHIMAG"> F  </i>
   <i type="logical" name="LGAUGE"> T  </i>
   <i type="int" name="MAGATOM">     0</i>
   <v name="MAGDIPOL">      0.00000000      0.00000000      0.00000000</v>
   <v name="AVECCONST">      0.00000000      0.00000000      0.00000000</v>
  </separator>
  <separator name="response functions" >
   <i type="logical" name="LADDER"> F  </i>
   <i type="logical" name="LRPAFORCE"> F  </i>
   <i type="logical" name="LFXC"> F  </i>
   <i type="logical" name="LHARTREE"> T  </i>
   <i type="int" name="IBSE">     0</i>
   <v type="int" name="KPOINT">    -1     0     0     0</v>
   <i type="logical" name="LTCTE"> F  </i>
   <i type="logical" name="LTETE"> F  </i>
   <i type="logical" name="LTRIPLET"> F  </i>
   <i type="logical" name="LFXCEPS"> F  </i>
   <i type="logical" name="LFXHEG"> F  </i>
   <i type="int" name="NATURALO">     2</i>
   <i type="logical" name="L2ORDER"> F  </i>
   <i type="logical" name="LMP2LT"> F  </i>
   <i type="logical" name="LUSEW"> F  </i>
   <i name="ENCUTGW">     -2.00000000</i>
   <i name="ENCUTGWSOFT">     -2.00000000</i>
   <i name="ENCUTLF">     -1.00000000</i>
   <i type="int" name="LMAXMP2">    -1</i>
   <i name="SCISSOR">      0.00000000</i>
   <i type="int" name="NOMEGA">     0</i>
   <i type="int" name="NOMEGAR">     0</i>
   <i type="int" name="NBANDSGW">    -1</i>
   <i type="int" name="NBANDSO">    -1</i>
   <i type="int" name="NBANDSV">    -1</i>
   <i type="int" name="NELM">     1</i>
   <i type="int" name="NELMHF">     1</i>
   <i type="int" name="DIM">     3</i>
   <i type="int" name="ANTIRES">     0</i>
   <i name="OMEGAMAX">    -30.00000000</i>
   <i name="OMEGAMIN">    -30.00000000</i>
   <i name="OMEGATL">   -200.00000000</i>
   <i type="int" name="OMEGAGRID">   140</i>
   <i name="CSHIFT">     -0.10000000</i>
   <i type="logical" name="SELFENERGY"> F  </i>
   <i type="logical" name="LSPECTRAL"> F  </i>
   <i type="logical" name="LSPECTRALGW"> F  </i>
   <i type="logical" name="LSINGLES"> F  </i>
   <i type="logical" name="LFERMIGW"> F  </i>
   <i type="logical" name="ODDONLYGW"> F  </i>
   <i type="logical" name="EVENONLYGW"> F  </i>
   <i type="int" name="NKREDLFX">     1</i>
   <i type="int" name="NKREDLFY">     1</i>
   <i type="int" name="NKREDLFZ">     1</i>
   <i type="int" name="MAXMEM">  2800</i>
   <i type="int" name="TELESCOPE">     0</i>
   <i type="int" name="TAUPAR">     1</i>
   <i type="int" name="OMEGAPAR">    -1</i>
   <i name="LAMBDA">      1.00000000</i>
  </separator>
  <separator name="External order field" >
   <i name="OFIELD_KAPPA">      0.00000000</i>
   <v name="OFIELD_K">      0.00000000      0.00000000      0.00000000</v>
   <i name="OFIELD_Q6_NEAR">      0.00000000</i>
   <i name="OFIELD_Q6_FAR">      0.00000000</i>
   <i name="OFIELD_A">      0.00000000</i>
  </separator>
 </parameters>
 <atominfo>
  <atoms>       8 </atoms>
  <types>       2 </types>
  <array name="atoms" >
   <dimension dim="1">ion</dimension>
   <field type="string">element</field>
   <field type="int">atomtype</field>
   <set>
    <rc><c>Sn</c><c>   1</c></rc>
    <rc><c>Sn</c><c>   1</c></rc>
    <rc><c>Sn</c><c>   1</c></rc>
    <rc><c>Sn</c><c>   1</c></rc>
    <rc><c>Se</c><c>   2</c></rc>
    <rc><c>Se</c><c>   2</c></rc>
    <rc><c>Se</c><c>   2</c></rc>
    <rc><c>Se</c><c>   2</c></rc>
   </set>
  </array>
  <array name="atomtypes" >
   <dimension dim="1">type</dimension>
   <field type="int">atomspertype</field>
   <field type="string">element</field>
   <field>mass</field>
   <field>valence</field>
   <field type="string">pseudopotential</field>
   <set>
    <rc><c>   4</c><c>Sn</c><c>    118.71000000</c><c>     14.00000000</c><c>  PAW_PBE Sn_d 06Sep2000                </c></rc>
    <rc><c>   4</c><c>Se</c><c>     78.96000000</c><c>      6.00000000</c><c>  PAW_PBE Se 06Sep2000                  </c></rc>
   </set>
  </array>
 </atominfo>
 <structure name="initialpos" >
  <crystal>
   <varray name="basis" >
    <v>       4.16842225       0.00000000       0.00000000 </v>
    <v>       0.00000000       4.53967086       0.00000000 </v>
    <v>       0.00000000       0.00000000      11.56850013 </v>
   </varray>
   <i name="volume">    218.91379385 </i>
   <varray name="rec_basis" >
    <v>       0.23989892      -0.00000000       0.00000000 </v>
    <v>       0.00000000       0.22028029       0.00000000 </v>
    <v>      -0.00000000      -0.00000000       0.08644163 </v>
   </varray>
  </crystal>
  <varray name="positions" >
   <v>       0.25000000       0.11238621       0.11664596 </v>
   <v>       0.75000000       0.88761379       0.88335404 </v>
   <v>       0.75000000       0.61238621       0.38335404 </v>
   <v>       0.25000000       0.38761379       0.61664596 </v>
   <v>       0.75000000       0.51916418       0.14510650 </v>
   <v>       0.25000000       0.48083582       0.85489350 </v>
   <v>       0.25000000       0.01916418       0.35489350 </v>
   <v>       0.75000000       0.98083582       0.64510650 </v>
  </varray>
 </structure>
 <calculation>
  <scstep>
   <time name="total">   18.90   18.98</time>
   <energy>
    <i name="alphaZ">    201.88417816 </i>
    <i name="ewald">  -5919.77645388 </i>
    <i name="hartreedc">  -2398.15554250 </i>
    <i name="XCdc">    225.07947965 </i>
    <i name="pawpsdc">   8375.84262308 </i>
    <i name="pawaedc">  -8469.76292181 </i>
    <i name="eentropy">     -0.00346846 </i>
    <i name="bandstr">    313.09182249 </i>
    <i name="atom">   8600.94477988 </i>
    <i name="e_fr_energy">    929.14449660 </i>
    <i name="e_wo_entrp">    929.14796506 </i>
    <i name="e_0_energy">    929.14623083 </i>
   </energy>
  </scstep>
  <scstep>
   <time name="total">   16.79   16.80</time>
   <energy>
    <i name="e_fr_energy">    150.52053492 </i>
    <i name="e_wo_entrp">    150.52627001 </i>
    <i name="e_0_energy">    150.52340247 </i>
   </energy>
  </scstep>
  <scstep>
   <time name="total">   18.35   18.41</time>
   <energy>
    <i name="e_fr_energy">     -9.74674969 </i>
    <i name="e_wo_entrp">     -9.74674969 </i>
    <i name="e_0_energy">     -9.74674969 </i>
   </energy>
  </scstep>
  <scstep>
   <time name="total">   19.22   19.24</time>
   <energy>
    <i name="e_fr_energy">    -22.17686067 </i>
    <i name="e_wo_entrp">    -22.17686067 </i>
    <i name="e_0_energy">    -22.17686067 </i>
   </energy>
  </scstep>
  <scstep>
   <time name="total">   18.46   18.47</time>
   <energy>
    <i name="e_fr_energy">    -22.50844853 </i>
    <i name="e_wo_entrp">    -22.50844853 </i>
    <i name="e_0_energy">    -22.50844853 </i>
   </energy>
  </scstep>
  <scstep>
   <time name="total">   10.99   11.00</time>
   <energy>
    <i name="e_fr_energy">    -22.50844853 </i>
    <i name="e_wo_entrp">    -22.50844853 </i>
    <i name="e_0_energy">    -22.50844853 </i>
   </energy>
  </scstep>
  <scstep>
   <time name="total">   10.97   10.99</time>
   <energy>
    <i name="e_fr_energy">    -22.51806250 </i>
    <i name="e_wo_entrp">    -22.51806250 </i>
    <i name="e_0_energy">    -22.51806250 </i>
   </energy>
  </scstep>
  <scstep>
   <time name="total">   10.75   10.76</time>
   <energy>
    <i name="e_fr_energy">    -22.52106392 </i>
    <i name="e_wo_entrp">    -22.52106392 </i>
    <i name="e_0_energy">    -22.52106392 </i>
   </energy>
  </scstep>
  <scstep>
   <time name="total">   10.95   10.98</time>
   <energy>
    <i name="e_fr_energy">    -22.52223780 </i>
    <i name="e_wo_entrp">    -22.52223780 </i>
    <i name="e_0_energy">    -22.52223780 </i>
   </energy>
  </scstep>
  <scstep>
   <time name="total">   10.97   10.98</time>
   <energy>
    <i name="e_fr_energy">    -22.52251896 </i>
    <i name="e_wo_entrp">    -22.52251896 </i>
    <i name="e_0_energy">    -22.52251896 </i>
   </energy>
  </scstep>
  <scstep>
   <time name="total">   10.94   10.95</time>
   <energy>
    <i name="e_fr_energy">    -22.52259282 </i>
    <i name="e_wo_entrp">    -22.52259282 </i>
    <i name="e_0_energy">    -22.52259282 </i>
   </energy>
  </scstep>
  <scstep>
   <time name="total">   10.99   10.99</time>
   <energy>
    <i name="e_fr_energy">    -22.52261171 </i>
    <i name="e_wo_entrp">    -22.52261171 </i>
    <i name="e_0_energy">    -22.52261171 </i>
   </energy>
  </scstep>
  <scstep>
   <time name="total">   10.94   10.95</time>
   <energy>
    <i name="e_fr_energy">    -22.52261533 </i>
    <i name="e_wo_entrp">    -22.52261533 </i>
    <i name="e_0_energy">    -22.52261533 </i>
   </energy>
  </scstep>
  <scstep>
   <time name="total">   11.03   11.12</time>
   <energy>
    <i name="e_fr_energy">    -22.52261611 </i>
    <i name="e_wo_entrp">    -22.52261611 </i>
    <i name="e_0_energy">    -22.52261611 </i>
   </energy>
  </scstep>
  <scstep>
   <time name="total">   10.97   10.97</time>
   <energy>
    <i name="e_fr_energy">    -22.52261631 </i>
    <i name="e_wo_entrp">    -22.52261631 </i>
    <i name="e_0_energy">    -22.52261631 </i>
   </energy>
  </scstep>
  <scstep>
   <time name="total">   13.16   13.17</time>
   <energy>
    <i name="alphaZ">    201.88417816 </i>
    <i name="ewald">  -5919.77645388 </i>
    <i name="hartreedc">  -2398.15554250 </i>
    <i name="XCdc">    225.07947965 </i>
    <i name="pawpsdc">   8375.84262308 </i>
    <i name="pawaedc">  -8469.76292181 </i>
    <i name="eentropy">     -0.00000000 </i>
    <i name="bandstr">   -638.57875896 </i>
    <i name="atom">   8600.94477988 </i>
    <i name="e_fr_energy">    -22.52261638 </i>
    <i name="e_wo_entrp">    -22.52261638 </i>
    <i name="e_0_energy">    -22.52261638 </i>
   </energy>
  </scstep>
  <structure>
   <crystal>
    <varray name="basis" >
     <v>       4.16842225       0.00000000       0.00000000 </v>
     <v>       0.00000000       4.53967086       0.00000000 </v>
     <v>       0.00000000       0.00000000      11.56850013 </v>
    </varray>
    <i name="volume">    218.91379385 </i>
    <varray name="rec_basis" >
     <v>       0.23989892      -0.00000000       0.00000000 </v>
     <v>       0.00000000       0.22028029       0.00000000 </v>
     <v>      -0.00000000      -0.00000000       0.08644163 </v>
    </varray>
   </crystal>
   <varray name="positions" >
    <v>       0.25000000       0.11238621       0.11664596 </v>
    <v>       0.75000000       0.88761379       0.88335404 </v>
    <v>       0.75000000       0.61238621       0.38335404 </v>
    <v>       0.25000000       0.38761379       0.61664596 </v>
    <v>       0.75000000       0.51916418       0.14510650 </v>
    <v>       0.25000000       0.48083582       0.85489350 </v>
    <v>       0.25000000       0.01916418       0.35489350 </v>
    <v>       0.75000000       0.98083582       0.64510650 </v>
   </varray>
  </structure>
  <varray name="forces" >
   <v>       0.00000000       0.83973193       0.51153986 </v>
   <v>      -0.00000000      -0.83973193      -0.51153986 </v>
   <v>       0.00000000       0.83973193      -0.51153986 </v>
   <v>      -0.00000000      -0.83973193       0.51153986 </v>
   <v>      -0.00000000      -0.97367577       1.13004868 </v>
   <v>       0.00000000       0.97367577      -1.13004868 </v>
   <v>      -0.00000000      -0.97367577      -1.13004868 </v>
   <v>       0.00000000       0.97367577       1.13004868 </v>
  </varray>
  <varray name="stress" >
   <v>     265.54611702       0.00000000       0.00000000 </v>
   <v>       0.00000000      35.51505976       0.00000000 </v>
   <v>       0.00000000       0.00000000      18.28457741 </v>
  </varray>
  <energy>
   <i name="e_fr_energy">    -24.28778076 </i>
   <i name="e_wo_entrp">    -24.28778076 </i>
   <i name="e_0_energy">     -0.00000000 </i>
  </energy>
  <time name="totalsc">  240.43  240.89</time>
  <eigenvalues>
   <array>
    <dimension dim="1">band</dimension>
    <dimension dim="2">kpoint</dimension>
    <dimension dim="3">spin</dimension>
    <field>eigene</field>
    <field>occ</field>
    <set>
     <set comment="spin 1">
      <set comment="kpoint 1">
       <r>  -16.1609    1.0000 </r>
       <r>  -16.1539    1.0000 </r>
       <r>  -16.1510    1.0000 </r>
       <r>  -16.1504    1.0000 </r>
       <r>  -16.1491    1.0000 </r>
       <r>  -16.1473    1.0000 </r>
       <r>  -16.1425    1.0000 </r>
       <r>  -16.1409    1.0000 </r>
       <r>  -16.1311    1.0000 </r>
       <r>  -16.1278    1.0000 </r>
       <r>  -16.1244    1.0000 </r>
       <r>  -16.1205    1.0000 </r>
       <r>  -16.1176    1.0000 </r>
       <r>  -16.1155    1.0000 </r>
       <r>  -16.0968    1.0000 </r>
       <r>  -16.0927    1.0000 </r>
       <r>  -16.0908    1.0000 </r>
       <r>  -16.0880    1.0000 </r>
       <r>  -16.0785    1.0000 </r>
       <r>  -16.0751    1.0000 </r>
       <r>   -8.0678    1.0000 </r>
       <r>   -7.7678    1.0000 </r>
       <r>   -7.5230    1.0000 </r>
       <r>   -7.1866    1.0000 </r>
       <r>   -2.7711    1.0000 </r>
       <r>   -2.0271    1.0000 </r>
       <r>   -1.4369    1.0000 </r>
       <r>   -0.8631    1.0000 </r>
       <r>    0.8956    1.0000 </r>
       <r>    2.2371    1.0000 </r>
       <r>    2.6020    1.0000 </r>
       <r>    3.0118    1.0000 </r>
       <r>    3.2815    1.0000 </r>
       <r>    3.2919    1.0000 </r>
       <r>    3.4867    1.0000 </r>
       <r>    3.7211    1.0000 </r>
       <r>    3.9725    1.0000 </r>
       <r>    4.5797    1.0000 </r>
       <r>    4.6217    1.0000 </r>
       <r>    5.1596    1.0000 </r>
       <r>    6.0820    0.0000 </r>
       <r>    6.5980    0.0000 </r>
       <r>    6.7521    0.0000 </r>
       <r>    7.0485    0.0000 </r>
       <r>    7.4866    0.0000 </r>
       <r>    7.7805    0.0000 </r>
       <r>    8.1031    0.0000 </r>
       <r>    8.4957    0.0000 </r>
       <r>    8.9439    0.0000 </r>
       <r>    9.2767    0.0000 </r>
       <r>   10.1357    0.0000 </r>
       <r>   10.6914    0.0000 </r>
       <r>   11.3274    0.0000 </r>
       <r>   11.9370    0.0000 </r>
       <r>   12.4947    0.0000 </r>
       <r>   12.7403    0.0000 </r>
       <r>   12.7500    0.0000 </r>
       <r>   13.0477    0.0000 </r>
       <r>   13.5817    0.0000 </r>
       <r>   13.8740    0.0000 </r>
      </set>
      <set comment="kpoint 2">
       <r>  -16.1608    1.0000 </r>
       <r>  -16.1537    1.0000 </r>
       <r>  -16.1511    1.0000 </r>
       <r>  -16.1505    1.0000 </r>
       <r>  -16.1490    1.0000 </r>
       <r>  -16.1472    1.0000 </r>
       <r>  -16.1426    1.0000 </r>
       <r>  -16.1410    1.0000 </r>
       <r>  -16.1312    1.0000 </r>
       <r>  -16.1279    1.0000 </r>
       <r>  -16.1243    1.0000 </r>
       <r>  -16.1205    1.0000 </r>
       <r>  -16.1176    1.0000 </r>
       <r>  -16.1155    1.0000 </r>
       <r>  -16.0967    1.0000 </r>
       <r>  -16.0926    1.0000 </r>
       <r>  -16.0908    1.0000 </r>
       <r>  -16.0881    1.0000 </r>
       <r>  -16.0785    1.0000 </r>
       <r>  -16.0751    1.0000 </r>
       <r>   -8.0648    1.0000 </r>
       <r>   -7.7654    1.0000 </r>
       <r>   -7.5211    1.0000 </r>
       <r>   -7.1856    1.0000 </r>
       <r>   -2.7677    1.0000 </r>
       <r>   -2.0243    1.0000 </r>
       <r>   -1.4351    1.0000 </r>
       <r>   -0.8638    1.0000 </r>
       <r>    0.8992    1.0000 </r>
       <r>    2.2113    1.0000 </r>
       <r>    2.5383    1.0000 </r>
       <r>    3.0007    1.0000 </r>
       <r>    3.2439    1.0000 </r>
       <r>    3.3477    1.0000 </r>
       <r>    3.4866    1.0000 </r>
       <r>    3.6789    1.0000 </r>
       <r>    3.9937    1.0000 </r>
       <r>    4.5902    1.0000 </r>
       <r>    4.6321    1.0000 </r>
       <r>    5.1470    1.0000 </r>
       <r>    6.1174    0.0000 </r>
       <r>    6.5985    0.0000 </r>
       <r>    6.6740    0.0000 </r>
       <r>    7.1693    0.0000 </r>
       <r>    7.3498    0.0000 </r>
       <r>    7.8652    0.0000 </r>
       <r>    8.1418    0.0000 </r>
       <r>    8.4662    0.0000 </r>
       <r>    8.9829    0.0000 </r>
       <r>    9.2950    0.0000 </r>
       <r>   10.1382    0.0000 </r>
       <r>   10.6904    0.0000 </r>
       <r>   11.3447    0.0000 </r>
       <r>   11.9548    0.0000 </r>
       <r>   12.3280    0.0000 </r>
       <r>   12.7614    0.0000 </r>
       <r>   12.9180    0.0000 </r>
       <r>   13.0541    0.0000 </r>
       <r>   13.5002    0.0000 </r>
       <r>   13.8748    0.0000 </r>
      </set>
      <set comment="kpoint 3">
       <r>  -16.1608    1.0000 </r>
       <r>  -16.1538    1.0000 </r>
       <r>  -16.1510    1.0000 </r>
       <r>  -16.1505    1.0000 </r>
       <r>  -16.1490    1.0000 </r>
       <r>  -16.1473    1.0000 </r>
       <r>  -16.1425    1.0000 </r>
       <r>  -16.1409    1.0000 </r>
       <r>  -16.1311    1.0000 </r>
       <r>  -16.1278    1.0000 </r>
       <r>  -16.1244    1.0000 </r>
       <r>  -16.1205    1.0000 </r>
       <r>  -16.1176    1.0000 </r>
       <r>  -16.1155    1.0000 </r>
       <r>  -16.0967    1.0000 </r>
       <r>  -16.0927    1.0000 </r>
       <r>  -16.0908    1.0000 </r>
       <r>  -16.0881    1.0000 </r>
       <r>  -16.0785    1.0000 </r>
       <r>  -16.0751    1.0000 </r>
       <r>   -8.0671    1.0000 </r>
       <r>   -7.7672    1.0000 </r>
       <r>   -7.5226    1.0000 </r>
       <r>   -7.1864    1.0000 </r>
       <r>   -2.7703    1.0000 </r>
       <r>   -2.0264    1.0000 </r>
       <r>   -1.4365    1.0000 </r>
       <r>   -0.8632    1.0000 </r>
       <r>    0.8965    1.0000 </r>
       <r>    2.2306    1.0000 </r>
       <r>    2.5850    1.0000 </r>
       <r>    3.0087    1.0000 </r>
       <r>    3.2717    1.0000 </r>
       <r>    3.3071    1.0000 </r>
       <r>    3.4871    1.0000 </r>
       <r>    3.7100    1.0000 </r>
       <r>    3.9780    1.0000 </r>
       <r>    4.5823    1.0000 </r>
       <r>    4.6247    1.0000 </r>
       <r>    5.1565    1.0000 </r>
       <r>    6.0909    0.0000 </r>
       <r>    6.5982    0.0000 </r>
       <r>    6.7263    0.0000 </r>
       <r>    7.0848    0.0000 </r>
       <r>    7.4435    0.0000 </r>
       <r>    7.8123    0.0000 </r>
       <r>    8.1109    0.0000 </r>
       <r>    8.4878    0.0000 </r>
       <r>    8.9543    0.0000 </r>
       <r>    9.2813    0.0000 </r>
       <r>   10.1364    0.0000 </r>
       <r>   10.6911    0.0000 </r>
       <r>   11.3318    0.0000 </r>
       <r>   11.9415    0.0000 </r>
       <r>   12.4365    0.0000 </r>
       <r>   12.7530    0.0000 </r>
       <r>   12.8013    0.0000 </r>
       <r>   13.0492    0.0000 </r>
       <r>   13.5597    0.0000 </r>
       <r>   13.8816    0.0000 </r>
      </set>
      <set comment="kpoint 4">
       <r>  -16.1608    1.0000 </r>
       <r>  -16.1538    1.0000 </r>
       <r>  -16.1510    1.0000 </r>
       <r>  -16.1505    1.0000 </r>
       <r>  -16.1490    1.0000 </r>
       <r>  -16.1473    1.0000 </r>
       <r>  -16.1425    1.0000 </r>
       <r>  -16.1409    1.0000 </r>
       <r>  -16.1311    1.0000 </r>
       <r>  -16.1278    1.0000 </r>
       <r>  -16.1244    1.0000 </r>
       <r>  -16.1205    1.0000 </r>
       <r>  -16.1176    1.0000 </r>
       <r>  -16.1155    1.0000 </r>
       <r>  -16.0967    1.0000 </r>
       <r>  -16.0927    1.0000 </r>
       <r>  -16.0908    1.0000 </r>
       <r>  -16.0881    1.0000 </r>
       <r>  -16.0785    1.0000 </r>
       <r>  -16.0751    1.0000 </r>
       <r>   -8.0671    1.0000 </r>
       <r>   -7.7672    1.0000 </r>
       <r>   -7.5226    1.0000 </r>
       <r>   -7.1864    1.0000 </r>
       <r>   -2.7703    1.0000 </r>
       <r>   -2.0264    1.0000 </r>
       <r>   -1.4365    1.0000 </r>
       <r>   -0.8632    1.0000 </r>
       <r>    0.8965    1.0000 </r>
       <r>    2.2306    1.0000 </r>
       <r>    2.5850    1.0000 </r>
       <r>    3.0087    1.0000 </r>
       <r>    3.2717    1.0000 </r>
       <r>    3.3071    1.0000 </r>
       <r>    3.4871    1.0000 </r>
       <r>    3.7100    1.0000 </r>
       <r>    3.9780    1.0000 </r>
       <r>    4.5823    1.0000 </r>
       <r>    4.6247    1.0000 </r>
       <r>    5.1565    1.0000 </r>
       <r>    6.0909    0.0000 </r>
       <r>    6.5982    0.0000 </r>
       <r>    6.7263    0.0000 </r>
       <r>    7.0848    0.0000 </r>
       <r>    7.4435    0.0000 </r>
       <r>    7.8123    0.0000 </r>
       <r>    8.1109    0.0000 </r>
       <r>    8.4878    0.0000 </r>
       <r>    8.9543    0.0000 </r>
       <r>    9.2813    0.0000 </r>
       <r>   10.1364    0.0000 </r>
       <r>   10.6911    0.0000 </r>
       <r>   11.3318    0.0000 </r>
       <r>   11.9415    0.0000 </r>
       <r>   12.4365    0.0000 </r>
       <r>   12.7530    0.0000 </r>
       <r>   12.8013    0.0000 </r>
       <r>   13.0493    0.0000 </r>
       <r>   13.5596    0.0000 </r>
       <r>   13.8953    0.0000 </r>
      </set>
      <set comment="kpoint 5">
       <r>  -16.1608    1.0000 </r>
       <r>  -16.1537    1.0000 </r>
       <r>  -16.1511    1.0000 </r>
       <r>  -16.1505    1.0000 </r>
       <r>  -16.1490    1.0000 </r>
       <r>  -16.1472    1.0000 </r>
       <r>  -16.1426    1.0000 </r>
       <r>  -16.1410    1.0000 </r>
       <r>  -16.1312    1.0000 </r>
       <r>  -16.1279    1.0000 </r>
       <r>  -16.1243    1.0000 </r>
       <r>  -16.1205    1.0000 </r>
       <r>  -16.1176    1.0000 </r>
       <r>  -16.1155    1.0000 </r>
       <r>  -16.0967    1.0000 </r>
       <r>  -16.0926    1.0000 </r>
       <r>  -16.0908    1.0000 </r>
       <r>  -16.0881    1.0000 </r>
       <r>  -16.0785    1.0000 </r>
       <r>  -16.0751    1.0000 </r>
       <r>   -8.0648    1.0000 </r>
       <r>   -7.7654    1.0000 </r>
       <r>   -7.5211    1.0000 </r>
       <r>   -7.1856    1.0000 </r>
       <r>   -2.7677    1.0000 </r>
       <r>   -2.0243    1.0000 </r>
       <r>   -1.4351    1.0000 </r>
       <r>   -0.8638    1.0000 </r>
       <r>    0.8992    1.0000 </r>
       <r>    2.2113    1.0000 </r>
       <r>    2.5383    1.0000 </r>
       <r>    3.0007    1.0000 </r>
       <r>    3.2439    1.0000 </r>
       <r>    3.3477    1.0000 </r>
       <r>    3.4866    1.0000 </r>
       <r>    3.6789    1.0000 </r>
       <r>    3.9937    1.0000 </r>
       <r>    4.5902    1.0000 </r>
       <r>    4.6321    1.0000 </r>
       <r>    5.1470    1.0000 </r>
       <r>    6.1174    0.0000 </r>
       <r>    6.5985    0.0000 </r>
       <r>    6.6740    0.0000 </r>
       <r>    7.1693    0.0000 </r>
       <r>    7.3498    0.0000 </r>
       <r>    7.8652    0.0000 </r>
       <r>    8.1418    0.0000 </r>
       <r>    8.4662    0.0000 </r>
       <r>    8.9829    0.0000 </r>
       <r>    9.2950    0.0000 </r>
       <r>   10.1382    0.0000 </r>
       <r>   10.6904    0.0000 </r>
       <r>   11.3447    0.0000 </r>
       <r>   11.9548    0.0000 </r>
       <r>   12.3280    0.0000 </r>
       <r>   12.7614    0.0000 </r>
       <r>   12.9180    0.0000 </r>
       <r>   13.0536    0.0000 </r>
       <r>   13.5001    0.0000 </r>
       <r>   13.9388    0.0000 </r>
      </set>
      <set comment="kpoint 6">
       <r>  -16.1615    1.0000 </r>
       <r>  -16.1535    1.0000 </r>
       <r>  -16.1513    1.0000 </r>
       <r>  -16.1502    1.0000 </r>
       <r>  -16.1486    1.0000 </r>
       <r>  -16.1472    1.0000 </r>
       <r>  -16.1424    1.0000 </r>
       <r>  -16.1406    1.0000 </r>
       <r>  -16.1314    1.0000 </r>
       <r>  -16.1276    1.0000 </r>
       <r>  -16.1252    1.0000 </r>
       <r>  -16.1214    1.0000 </r>
       <r>  -16.1174    1.0000 </r>
       <r>  -16.1156    1.0000 </r>
       <r>  -16.0969    1.0000 </r>
       <r>  -16.0923    1.0000 </r>
       <r>  -16.0910    1.0000 </r>
       <r>  -16.0878    1.0000 </r>
       <r>  -16.0787    1.0000 </r>
       <r>  -16.0749    1.0000 </r>
       <r>   -8.1217    1.0000 </r>
       <r>   -7.8179    1.0000 </r>
       <r>   -7.5066    1.0000 </r>
       <r>   -7.1572    1.0000 </r>
       <r>   -2.7244    1.0000 </r>
       <r>   -1.8723    1.0000 </r>
       <r>   -1.4038    1.0000 </r>
       <r>   -0.7515    1.0000 </r>
       <r>    0.8035    1.0000 </r>
       <r>    2.2649    1.0000 </r>
       <r>    2.5166    1.0000 </r>
       <r>    2.9383    1.0000 </r>
       <r>    3.1718    1.0000 </r>
       <r>    3.2664    1.0000 </r>
       <r>    3.4153    1.0000 </r>
       <r>    3.7359    1.0000 </r>
       <r>    3.9409    1.0000 </r>
       <r>    4.4432    1.0000 </r>
       <r>    4.6033    1.0000 </r>
       <r>    5.1272    1.0000 </r>
       <r>    6.1612    0.0000 </r>
       <r>    6.4736    0.0000 </r>
       <r>    6.9426    0.0000 </r>
       <r>    7.1557    0.0000 </r>
       <r>    7.6505    0.0000 </r>
       <r>    7.9684    0.0000 </r>
       <r>    8.2304    0.0000 </r>
       <r>    8.5794    0.0000 </r>
       <r>    9.1453    0.0000 </r>
       <r>    9.4538    0.0000 </r>
       <r>    9.9691    0.0000 </r>
       <r>   10.5854    0.0000 </r>
       <r>   11.1074    0.0000 </r>
       <r>   11.8245    0.0000 </r>
       <r>   12.4061    0.0000 </r>
       <r>   12.5195    0.0000 </r>
       <r>   12.7042    0.0000 </r>
       <r>   12.9324    0.0000 </r>
       <r>   13.7221    0.0000 </r>
       <r>   13.7802    0.0000 </r>
      </set>
      <set comment="kpoint 7">
       <r>  -16.1612    1.0000 </r>
       <r>  -16.1537    1.0000 </r>
       <r>  -16.1511    1.0000 </r>
       <r>  -16.1503    1.0000 </r>
       <r>  -16.1488    1.0000 </r>
       <r>  -16.1473    1.0000 </r>
       <r>  -16.1424    1.0000 </r>
       <r>  -16.1408    1.0000 </r>
       <r>  -16.1312    1.0000 </r>
       <r>  -16.1277    1.0000 </r>
       <r>  -16.1248    1.0000 </r>
       <r>  -16.1210    1.0000 </r>
       <r>  -16.1175    1.0000 </r>
       <r>  -16.1156    1.0000 </r>
       <r>  -16.0968    1.0000 </r>
       <r>  -16.0925    1.0000 </r>
       <r>  -16.0909    1.0000 </r>
       <r>  -16.0879    1.0000 </r>
       <r>  -16.0786    1.0000 </r>
       <r>  -16.0750    1.0000 </r>
       <r>   -8.0950    1.0000 </r>
       <r>   -7.7931    1.0000 </r>
       <r>   -7.5142    1.0000 </r>
       <r>   -7.1714    1.0000 </r>
       <r>   -2.7495    1.0000 </r>
       <r>   -1.9509    1.0000 </r>
       <r>   -1.4217    1.0000 </r>
       <r>   -0.8078    1.0000 </r>
       <r>    0.8484    1.0000 </r>
       <r>    2.2553    1.0000 </r>
       <r>    2.5588    1.0000 </r>
       <r>    2.9747    1.0000 </r>
       <r>    3.2313    1.0000 </r>
       <r>    3.2750    1.0000 </r>
       <r>    3.4513    1.0000 </r>
       <r>    3.7295    1.0000 </r>
       <r>    3.9539    1.0000 </r>
       <r>    4.5340    1.0000 </r>
       <r>    4.5903    1.0000 </r>
       <r>    5.1517    1.0000 </r>
       <r>    6.1126    0.0000 </r>
       <r>    6.5349    0.0000 </r>
       <r>    6.8450    0.0000 </r>
       <r>    7.0994    0.0000 </r>
       <r>    7.5704    0.0000 </r>
       <r>    7.8733    0.0000 </r>
       <r>    8.1691    0.0000 </r>
       <r>    8.5351    0.0000 </r>
       <r>    9.0452    0.0000 </r>
       <r>    9.3642    0.0000 </r>
       <r>   10.0520    0.0000 </r>
       <r>   10.6399    0.0000 </r>
       <r>   11.2133    0.0000 </r>
       <r>   11.8801    0.0000 </r>
       <r>   12.4488    0.0000 </r>
       <r>   12.6367    0.0000 </r>
       <r>   12.7159    0.0000 </r>
       <r>   12.9887    0.0000 </r>
       <r>   13.6582    0.0000 </r>
       <r>   13.8546    0.0000 </r>
      </set>
      <set comment="kpoint 8">
       <r>  -16.1605    1.0000 </r>
       <r>  -16.1540    1.0000 </r>
       <r>  -16.1508    1.0000 </r>
       <r>  -16.1505    1.0000 </r>
       <r>  -16.1493    1.0000 </r>
       <r>  -16.1474    1.0000 </r>
       <r>  -16.1425    1.0000 </r>
       <r>  -16.1410    1.0000 </r>
       <r>  -16.1310    1.0000 </r>
       <r>  -16.1279    1.0000 </r>
       <r>  -16.1239    1.0000 </r>
       <r>  -16.1201    1.0000 </r>
       <r>  -16.1177    1.0000 </r>
       <r>  -16.1155    1.0000 </r>
       <r>  -16.0967    1.0000 </r>
       <r>  -16.0929    1.0000 </r>
       <r>  -16.0907    1.0000 </r>
       <r>  -16.0881    1.0000 </r>
       <r>  -16.0783    1.0000 </r>
       <r>  -16.0752    1.0000 </r>
       <r>   -8.0402    1.0000 </r>
       <r>   -7.7421    1.0000 </r>
       <r>   -7.5331    1.0000 </r>
       <r>   -7.2028    1.0000 </r>
       <r>   -2.7890    1.0000 </r>
       <r>   -2.1008    1.0000 </r>
       <r>   -1.4495    1.0000 </r>
       <r>   -0.9170    1.0000 </r>
       <r>    0.9449    1.0000 </r>
       <r>    2.2108    1.0000 </r>
       <r>    2.6457    1.0000 </r>
       <r>    3.0493    1.0000 </r>
       <r>    3.2856    1.0000 </r>
       <r>    3.3540    1.0000 </r>
       <r>    3.5215    1.0000 </r>
       <r>    3.7108    1.0000 </r>
       <r>    3.9950    1.0000 </r>
       <r>    4.5725    1.0000 </r>
       <r>    4.7045    1.0000 </r>
       <r>    5.1498    1.0000 </r>
       <r>    6.0707    0.0000 </r>
       <r>    6.6624    0.0000 </r>
       <r>    6.6659    0.0000 </r>
       <r>    7.0034    0.0000 </r>
       <r>    7.4000    0.0000 </r>
       <r>    7.6904    0.0000 </r>
       <r>    8.0337    0.0000 </r>
       <r>    8.4618    0.0000 </r>
       <r>    8.8422    0.0000 </r>
       <r>    9.1915    0.0000 </r>
       <r>   10.2190    0.0000 </r>
       <r>   10.7390    0.0000 </r>
       <r>   11.4484    0.0000 </r>
       <r>   11.9942    0.0000 </r>
       <r>   12.5436    0.0000 </r>
       <r>   12.7788    0.0000 </r>
       <r>   12.8527    0.0000 </r>
       <r>   13.1088    0.0000 </r>
       <r>   13.5340    0.0000 </r>
       <r>   13.9268    0.0000 </r>
      </set>
      <set comment="kpoint 9">
       <r>  -16.1602    1.0000 </r>
       <r>  -16.1542    1.0000 </r>
       <r>  -16.1506    1.0000 </r>
       <r>  -16.1506    1.0000 </r>
       <r>  -16.1495    1.0000 </r>
       <r>  -16.1475    1.0000 </r>
       <r>  -16.1425    1.0000 </r>
       <r>  -16.1411    1.0000 </r>
       <r>  -16.1309    1.0000 </r>
       <r>  -16.1280    1.0000 </r>
       <r>  -16.1235    1.0000 </r>
       <r>  -16.1197    1.0000 </r>
       <r>  -16.1178    1.0000 </r>
       <r>  -16.1155    1.0000 </r>
       <r>  -16.0966    1.0000 </r>
       <r>  -16.0931    1.0000 </r>
       <r>  -16.0905    1.0000 </r>
       <r>  -16.0882    1.0000 </r>
       <r>  -16.0782    1.0000 </r>
       <r>  -16.0754    1.0000 </r>
       <r>   -8.0123    1.0000 </r>
       <r>   -7.7159    1.0000 </r>
       <r>   -7.5445    1.0000 </r>
       <r>   -7.2199    1.0000 </r>
       <r>   -2.8030    1.0000 </r>
       <r>   -2.1717    1.0000 </r>
       <r>   -1.4591    1.0000 </r>
       <r>   -0.9694    1.0000 </r>
       <r>    0.9963    1.0000 </r>
       <r>    2.1770    1.0000 </r>
       <r>    2.6900    1.0000 </r>
       <r>    3.0872    1.0000 </r>
       <r>    3.2870    1.0000 </r>
       <r>    3.4176    1.0000 </r>
       <r>    3.5559    1.0000 </r>
       <r>    3.6984    1.0000 </r>
       <r>    4.0193    1.0000 </r>
       <r>    4.5704    1.0000 </r>
       <r>    4.7794    1.0000 </r>
       <r>    5.1242    1.0000 </r>
       <r>    6.0772    0.0000 </r>
       <r>    6.5889    0.0000 </r>
       <r>    6.7273    0.0000 </r>
       <r>    6.9644    0.0000 </r>
       <r>    7.3111    0.0000 </r>
       <r>    7.6033    0.0000 </r>
       <r>    7.9621    0.0000 </r>
       <r>    8.4334    0.0000 </r>
       <r>    8.7403    0.0000 </r>
       <r>    9.1091    0.0000 </r>
       <r>   10.3009    0.0000 </r>
       <r>   10.7821    0.0000 </r>
       <r>   11.5748    0.0000 </r>
       <r>   12.0513    0.0000 </r>
       <r>   12.5956    0.0000 </r>
       <r>   12.8322    0.0000 </r>
       <r>   12.9347    0.0000 </r>
       <r>   13.1647    0.0000 </r>
       <r>   13.5206    0.0000 </r>
       <r>   14.0369    0.0000 </r>
      </set>
      <set comment="kpoint 10">
       <r>  -16.1608    1.0000 </r>
       <r>  -16.1540    1.0000 </r>
       <r>  -16.1509    1.0000 </r>
       <r>  -16.1504    1.0000 </r>
       <r>  -16.1491    1.0000 </r>
       <r>  -16.1474    1.0000 </r>
       <r>  -16.1425    1.0000 </r>
       <r>  -16.1409    1.0000 </r>
       <r>  -16.1311    1.0000 </r>
       <r>  -16.1278    1.0000 </r>
       <r>  -16.1243    1.0000 </r>
       <r>  -16.1206    1.0000 </r>
       <r>  -16.1175    1.0000 </r>
       <r>  -16.1156    1.0000 </r>
       <r>  -16.0967    1.0000 </r>
       <r>  -16.0928    1.0000 </r>
       <r>  -16.0907    1.0000 </r>
       <r>  -16.0881    1.0000 </r>
       <r>  -16.0784    1.0000 </r>
       <r>  -16.0751    1.0000 </r>
       <r>   -8.0656    1.0000 </r>
       <r>   -7.7760    1.0000 </r>
       <r>   -7.5145    1.0000 </r>
       <r>   -7.1893    1.0000 </r>
       <r>   -2.7644    1.0000 </r>
       <r>   -2.0393    1.0000 </r>
       <r>   -1.4320    1.0000 </r>
       <r>   -0.8718    1.0000 </r>
       <r>    0.9193    1.0000 </r>
       <r>    2.2498    1.0000 </r>
       <r>    2.6049    1.0000 </r>
       <r>    2.9995    1.0000 </r>
       <r>    3.2382    1.0000 </r>
       <r>    3.2940    1.0000 </r>
       <r>    3.5020    1.0000 </r>
       <r>    3.7178    1.0000 </r>
       <r>    3.9784    1.0000 </r>
       <r>    4.5365    1.0000 </r>
       <r>    4.6423    1.0000 </r>
       <r>    5.1493    1.0000 </r>
       <r>    6.0838    0.0000 </r>
       <r>    6.6595    0.0000 </r>
       <r>    6.7686    0.0000 </r>
       <r>    7.0549    0.0000 </r>
       <r>    7.4766    0.0000 </r>
       <r>    7.7659    0.0000 </r>
       <r>    8.0904    0.0000 </r>
       <r>    8.5092    0.0000 </r>
       <r>    8.9457    0.0000 </r>
       <r>    9.2680    0.0000 </r>
       <r>   10.1182    0.0000 </r>
       <r>   10.6733    0.0000 </r>
       <r>   11.3358    0.0000 </r>
       <r>   11.9201    0.0000 </r>
       <r>   12.5137    0.0000 </r>
       <r>   12.5885    0.0000 </r>
       <r>   12.9087    0.0000 </r>
       <r>   13.0599    0.0000 </r>
       <r>   13.5498    0.0000 </r>
       <r>   13.9766    0.0000 </r>
      </set>
      <set comment="kpoint 11">
       <r>  -16.1608    1.0000 </r>
       <r>  -16.1539    1.0000 </r>
       <r>  -16.1509    1.0000 </r>
       <r>  -16.1504    1.0000 </r>
       <r>  -16.1491    1.0000 </r>
       <r>  -16.1473    1.0000 </r>
       <r>  -16.1425    1.0000 </r>
       <r>  -16.1409    1.0000 </r>
       <r>  -16.1311    1.0000 </r>
       <r>  -16.1278    1.0000 </r>
       <r>  -16.1244    1.0000 </r>
       <r>  -16.1205    1.0000 </r>
       <r>  -16.1176    1.0000 </r>
       <r>  -16.1155    1.0000 </r>
       <r>  -16.0968    1.0000 </r>
       <r>  -16.0927    1.0000 </r>
       <r>  -16.0908    1.0000 </r>
       <r>  -16.0880    1.0000 </r>
       <r>  -16.0784    1.0000 </r>
       <r>  -16.0751    1.0000 </r>
       <r>   -8.0672    1.0000 </r>
       <r>   -7.7699    1.0000 </r>
       <r>   -7.5208    1.0000 </r>
       <r>   -7.1873    1.0000 </r>
       <r>   -2.7694    1.0000 </r>
       <r>   -2.0302    1.0000 </r>
       <r>   -1.4357    1.0000 </r>
       <r>   -0.8653    1.0000 </r>
       <r>    0.9015    1.0000 </r>
       <r>    2.2403    1.0000 </r>
       <r>    2.6027    1.0000 </r>
       <r>    3.0086    1.0000 </r>
       <r>    3.2773    1.0000 </r>
       <r>    3.2847    1.0000 </r>
       <r>    3.4916    1.0000 </r>
       <r>    3.7203    1.0000 </r>
       <r>    3.9741    1.0000 </r>
       <r>    4.5656    1.0000 </r>
       <r>    4.6300    1.0000 </r>
       <r>    5.1571    1.0000 </r>
       <r>    6.0818    0.0000 </r>
       <r>    6.6147    0.0000 </r>
       <r>    6.7557    0.0000 </r>
       <r>    7.0501    0.0000 </r>
       <r>    7.4841    0.0000 </r>
       <r>    7.7768    0.0000 </r>
       <r>    8.0999    0.0000 </r>
       <r>    8.4991    0.0000 </r>
       <r>    8.9444    0.0000 </r>
       <r>    9.2745    0.0000 </r>
       <r>   10.1312    0.0000 </r>
       <r>   10.6869    0.0000 </r>
       <r>   11.3296    0.0000 </r>
       <r>   11.9327    0.0000 </r>
       <r>   12.4994    0.0000 </r>
       <r>   12.6647    0.0000 </r>
       <r>   12.8272    0.0000 </r>
       <r>   13.0509    0.0000 </r>
       <r>   13.5717    0.0000 </r>
       <r>   13.8902    0.0000 </r>
      </set>
      <set comment="kpoint 12">
       <r>  -16.1608    1.0000 </r>
       <r>  -16.1539    1.0000 </r>
       <r>  -16.1509    1.0000 </r>
       <r>  -16.1504    1.0000 </r>
       <r>  -16.1491    1.0000 </r>
       <r>  -16.1473    1.0000 </r>
       <r>  -16.1425    1.0000 </r>
       <r>  -16.1409    1.0000 </r>
       <r>  -16.1311    1.0000 </r>
       <r>  -16.1278    1.0000 </r>
       <r>  -16.1244    1.0000 </r>
       <r>  -16.1205    1.0000 </r>
       <r>  -16.1176    1.0000 </r>
       <r>  -16.1155    1.0000 </r>
       <r>  -16.0968    1.0000 </r>
       <r>  -16.0927    1.0000 </r>
       <r>  -16.0908    1.0000 </r>
       <r>  -16.0880    1.0000 </r>
       <r>  -16.0784    1.0000 </r>
       <r>  -16.0751    1.0000 </r>
       <r>   -8.0672    1.0000 </r>
       <r>   -7.7699    1.0000 </r>
       <r>   -7.5208    1.0000 </r>
       <r>   -7.1873    1.0000 </r>
       <r>   -2.7694    1.0000 </r>
       <r>   -2.0302    1.0000 </r>
       <r>   -1.4357    1.0000 </r>
       <r>   -0.8653    1.0000 </r>
       <r>    0.9015    1.0000 </r>
       <r>    2.2403    1.0000 </r>
       <r>    2.6027    1.0000 </r>
       <r>    3.0086    1.0000 </r>
       <r>    3.2773    1.0000 </r>
       <r>    3.2847    1.0000 </r>
       <r>    3.4916    1.0000 </r>
       <r>    3.7203    1.0000 </r>
       <r>    3.9741    1.0000 </r>
       <r>    4.5656    1.0000 </r>
       <r>    4.6300    1.0000 </r>
       <r>    5.1571    1.0000 </r>
       <r>    6.0818    0.0000 </r>
       <r>    6.6147    0.0000 </r>
       <r>    6.7557    0.0000 </r>
       <r>    7.0501    0.0000 </r>
       <r>    7.4841    0.0000 </r>
       <r>    7.7768    0.0000 </r>
       <r>    8.0999    0.0000 </r>
       <r>    8.4991    0.0000 </r>
       <r>    8.9444    0.0000 </r>
       <r>    9.2745    0.0000 </r>
       <r>   10.1312    0.0000 </r>
       <r>   10.6869    0.0000 </r>
       <r>   11.3296    0.0000 </r>
       <r>   11.9327    0.0000 </r>
       <r>   12.4996    0.0000 </r>
       <r>   12.6647    0.0000 </r>
       <r>   12.8272    0.0000 </r>
       <r>   13.0510    0.0000 </r>
       <r>   13.5711    0.0000 </r>
       <r>   14.0656    0.0000 </r>
      </set>
      <set comment="kpoint 13">
       <r>  -16.1608    1.0000 </r>
       <r>  -16.1540    1.0000 </r>
       <r>  -16.1509    1.0000 </r>
       <r>  -16.1504    1.0000 </r>
       <r>  -16.1491    1.0000 </r>
       <r>  -16.1474    1.0000 </r>
       <r>  -16.1425    1.0000 </r>
       <r>  -16.1409    1.0000 </r>
       <r>  -16.1311    1.0000 </r>
       <r>  -16.1278    1.0000 </r>
       <r>  -16.1243    1.0000 </r>
       <r>  -16.1206    1.0000 </r>
       <r>  -16.1175    1.0000 </r>
       <r>  -16.1156    1.0000 </r>
       <r>  -16.0967    1.0000 </r>
       <r>  -16.0928    1.0000 </r>
       <r>  -16.0907    1.0000 </r>
       <r>  -16.0881    1.0000 </r>
       <r>  -16.0784    1.0000 </r>
       <r>  -16.0751    1.0000 </r>
       <r>   -8.0656    1.0000 </r>
       <r>   -7.7760    1.0000 </r>
       <r>   -7.5145    1.0000 </r>
       <r>   -7.1893    1.0000 </r>
       <r>   -2.7644    1.0000 </r>
       <r>   -2.0393    1.0000 </r>
       <r>   -1.4320    1.0000 </r>
       <r>   -0.8718    1.0000 </r>
       <r>    0.9193    1.0000 </r>
       <r>    2.2498    1.0000 </r>
       <r>    2.6049    1.0000 </r>
       <r>    2.9995    1.0000 </r>
       <r>    3.2382    1.0000 </r>
       <r>    3.2940    1.0000 </r>
       <r>    3.5020    1.0000 </r>
       <r>    3.7178    1.0000 </r>
       <r>    3.9784    1.0000 </r>
       <r>    4.5365    1.0000 </r>
       <r>    4.6423    1.0000 </r>
       <r>    5.1493    1.0000 </r>
       <r>    6.0838    0.0000 </r>
       <r>    6.6595    0.0000 </r>
       <r>    6.7686    0.0000 </r>
       <r>    7.0549    0.0000 </r>
       <r>    7.4766    0.0000 </r>
       <r>    7.7659    0.0000 </r>
       <r>    8.0904    0.0000 </r>
       <r>    8.5092    0.0000 </r>
       <r>    8.9457    0.0000 </r>
       <r>    9.2680    0.0000 </r>
       <r>   10.1182    0.0000 </r>
       <r>   10.6733    0.0000 </r>
       <r>   11.3358    0.0000 </r>
       <r>   11.9201    0.0000 </r>
       <r>   12.5137    0.0000 </r>
       <r>   12.5885    0.0000 </r>
       <r>   12.9087    0.0000 </r>
       <r>   13.0599    0.0000 </r>
       <r>   13.5485    0.0000 </r>
       <r>   13.9770    0.0000 </r>
      </set>
      <set comment="kpoint 14">
       <r>  -16.1614    1.0000 </r>
       <r>  -16.1534    1.0000 </r>
       <r>  -16.1513    1.0000 </r>
       <r>  -16.1503    1.0000 </r>
       <r>  -16.1485    1.0000 </r>
       <r>  -16.1471    1.0000 </r>
       <r>  -16.1425    1.0000 </r>
       <r>  -16.1407    1.0000 </r>
       <r>  -16.1314    1.0000 </r>
       <r>  -16.1277    1.0000 </r>
       <r>  -16.1251    1.0000 </r>
       <r>  -16.1213    1.0000 </r>
       <r>  -16.1174    1.0000 </r>
       <r>  -16.1155    1.0000 </r>
       <r>  -16.0968    1.0000 </r>
       <r>  -16.0922    1.0000 </r>
       <r>  -16.0911    1.0000 </r>
       <r>  -16.0879    1.0000 </r>
       <r>  -16.0787    1.0000 </r>
       <r>  -16.0749    1.0000 </r>
       <r>   -8.1187    1.0000 </r>
       <r>   -7.8154    1.0000 </r>
       <r>   -7.5047    1.0000 </r>
       <r>   -7.1563    1.0000 </r>
       <r>   -2.7214    1.0000 </r>
       <r>   -1.8700    1.0000 </r>
       <r>   -1.4024    1.0000 </r>
       <r>   -0.7532    1.0000 </r>
       <r>    0.8073    1.0000 </r>
       <r>    2.2283    1.0000 </r>
       <r>    2.4560    1.0000 </r>
       <r>    2.9457    1.0000 </r>
       <r>    3.2251    1.0000 </r>
       <r>    3.2262    1.0000 </r>
       <r>    3.4173    1.0000 </r>
       <r>    3.6938    1.0000 </r>
       <r>    3.9600    1.0000 </r>
       <r>    4.4646    1.0000 </r>
       <r>    4.6103    1.0000 </r>
       <r>    5.1180    1.0000 </r>
       <r>    6.1939    0.0000 </r>
       <r>    6.4764    0.0000 </r>
       <r>    6.8343    0.0000 </r>
       <r>    7.2945    0.0000 </r>
       <r>    7.5230    0.0000 </r>
       <r>    8.0347    0.0000 </r>
       <r>    8.2735    0.0000 </r>
       <r>    8.5539    0.0000 </r>
       <r>    9.1756    0.0000 </r>
       <r>    9.4598    0.0000 </r>
       <r>    9.9774    0.0000 </r>
       <r>   10.5883    0.0000 </r>
       <r>   11.1303    0.0000 </r>
       <r>   11.8414    0.0000 </r>
       <r>   12.2593    0.0000 </r>
       <r>   12.5363    0.0000 </r>
       <r>   12.8630    0.0000 </r>
       <r>   12.9380    0.0000 </r>
       <r>   13.6322    0.0000 </r>
       <r>   13.7615    0.0000 </r>
      </set>
      <set comment="kpoint 15">
       <r>  -16.1615    1.0000 </r>
       <r>  -16.1535    1.0000 </r>
       <r>  -16.1513    1.0000 </r>
       <r>  -16.1502    1.0000 </r>
       <r>  -16.1486    1.0000 </r>
       <r>  -16.1472    1.0000 </r>
       <r>  -16.1424    1.0000 </r>
       <r>  -16.1407    1.0000 </r>
       <r>  -16.1314    1.0000 </r>
       <r>  -16.1276    1.0000 </r>
       <r>  -16.1252    1.0000 </r>
       <r>  -16.1214    1.0000 </r>
       <r>  -16.1174    1.0000 </r>
       <r>  -16.1156    1.0000 </r>
       <r>  -16.0969    1.0000 </r>
       <r>  -16.0923    1.0000 </r>
       <r>  -16.0910    1.0000 </r>
       <r>  -16.0879    1.0000 </r>
       <r>  -16.0787    1.0000 </r>
       <r>  -16.0749    1.0000 </r>
       <r>   -8.1209    1.0000 </r>
       <r>   -7.8173    1.0000 </r>
       <r>   -7.5061    1.0000 </r>
       <r>   -7.1570    1.0000 </r>
       <r>   -2.7236    1.0000 </r>
       <r>   -1.8717    1.0000 </r>
       <r>   -1.4035    1.0000 </r>
       <r>   -0.7519    1.0000 </r>
       <r>    0.8044    1.0000 </r>
       <r>    2.2556    1.0000 </r>
       <r>    2.5004    1.0000 </r>
       <r>    2.9403    1.0000 </r>
       <r>    3.1862    1.0000 </r>
       <r>    3.2557    1.0000 </r>
       <r>    3.4165    1.0000 </r>
       <r>    3.7247    1.0000 </r>
       <r>    3.9458    1.0000 </r>
       <r>    4.4491    1.0000 </r>
       <r>    4.6050    1.0000 </r>
       <r>    5.1250    1.0000 </r>
       <r>    6.1694    0.0000 </r>
       <r>    6.4743    0.0000 </r>
       <r>    6.9045    0.0000 </r>
       <r>    7.2013    0.0000 </r>
       <r>    7.6115    0.0000 </r>
       <r>    7.9938    0.0000 </r>
       <r>    8.2394    0.0000 </r>
       <r>    8.5727    0.0000 </r>
       <r>    9.1533    0.0000 </r>
       <r>    9.4553    0.0000 </r>
       <r>    9.9712    0.0000 </r>
       <r>   10.5862    0.0000 </r>
       <r>   11.1132    0.0000 </r>
       <r>   11.8288    0.0000 </r>
       <r>   12.3575    0.0000 </r>
       <r>   12.5237    0.0000 </r>
       <r>   12.7558    0.0000 </r>
       <r>   12.9337    0.0000 </r>
       <r>   13.6954    0.0000 </r>
       <r>   13.7505    0.0000 </r>
      </set>
      <set comment="kpoint 16">
       <r>  -16.1615    1.0000 </r>
       <r>  -16.1535    1.0000 </r>
       <r>  -16.1513    1.0000 </r>
       <r>  -16.1502    1.0000 </r>
       <r>  -16.1486    1.0000 </r>
       <r>  -16.1472    1.0000 </r>
       <r>  -16.1424    1.0000 </r>
       <r>  -16.1407    1.0000 </r>
       <r>  -16.1314    1.0000 </r>
       <r>  -16.1276    1.0000 </r>
       <r>  -16.1252    1.0000 </r>
       <r>  -16.1214    1.0000 </r>
       <r>  -16.1174    1.0000 </r>
       <r>  -16.1156    1.0000 </r>
       <r>  -16.0969    1.0000 </r>
       <r>  -16.0923    1.0000 </r>
       <r>  -16.0910    1.0000 </r>
       <r>  -16.0879    1.0000 </r>
       <r>  -16.0787    1.0000 </r>
       <r>  -16.0749    1.0000 </r>
       <r>   -8.1209    1.0000 </r>
       <r>   -7.8173    1.0000 </r>
       <r>   -7.5061    1.0000 </r>
       <r>   -7.1570    1.0000 </r>
       <r>   -2.7236    1.0000 </r>
       <r>   -1.8717    1.0000 </r>
       <r>   -1.4035    1.0000 </r>
       <r>   -0.7519    1.0000 </r>
       <r>    0.8044    1.0000 </r>
       <r>    2.2556    1.0000 </r>
       <r>    2.5004    1.0000 </r>
       <r>    2.9403    1.0000 </r>
       <r>    3.1862    1.0000 </r>
       <r>    3.2557    1.0000 </r>
       <r>    3.4165    1.0000 </r>
       <r>    3.7247    1.0000 </r>
       <r>    3.9458    1.0000 </r>
       <r>    4.4491    1.0000 </r>
       <r>    4.6050    1.0000 </r>
       <r>    5.1250    1.0000 </r>
       <r>    6.1694    0.0000 </r>
       <r>    6.4743    0.0000 </r>
       <r>    6.9045    0.0000 </r>
       <r>    7.2013    0.0000 </r>
       <r>    7.6115    0.0000 </r>
       <r>    7.9938    0.0000 </r>
       <r>    8.2394    0.0000 </r>
       <r>    8.5727    0.0000 </r>
       <r>    9.1533    0.0000 </r>
       <r>    9.4553    0.0000 </r>
       <r>    9.9712    0.0000 </r>
       <r>   10.5862    0.0000 </r>
       <r>   11.1132    0.0000 </r>
       <r>   11.8288    0.0000 </r>
       <r>   12.3575    0.0000 </r>
       <r>   12.5237    0.0000 </r>
       <r>   12.7558    0.0000 </r>
       <r>   12.9336    0.0000 </r>
       <r>   13.6901    0.0000 </r>
       <r>   13.7513    0.0000 </r>
      </set>
      <set comment="kpoint 17">
       <r>  -16.1614    1.0000 </r>
       <r>  -16.1534    1.0000 </r>
       <r>  -16.1513    1.0000 </r>
       <r>  -16.1503    1.0000 </r>
       <r>  -16.1485    1.0000 </r>
       <r>  -16.1471    1.0000 </r>
       <r>  -16.1425    1.0000 </r>
       <r>  -16.1407    1.0000 </r>
       <r>  -16.1314    1.0000 </r>
       <r>  -16.1277    1.0000 </r>
       <r>  -16.1251    1.0000 </r>
       <r>  -16.1213    1.0000 </r>
       <r>  -16.1174    1.0000 </r>
       <r>  -16.1155    1.0000 </r>
       <r>  -16.0968    1.0000 </r>
       <r>  -16.0922    1.0000 </r>
       <r>  -16.0911    1.0000 </r>
       <r>  -16.0879    1.0000 </r>
       <r>  -16.0787    1.0000 </r>
       <r>  -16.0749    1.0000 </r>
       <r>   -8.1187    1.0000 </r>
       <r>   -7.8154    1.0000 </r>
       <r>   -7.5047    1.0000 </r>
       <r>   -7.1563    1.0000 </r>
       <r>   -2.7214    1.0000 </r>
       <r>   -1.8700    1.0000 </r>
       <r>   -1.4024    1.0000 </r>
       <r>   -0.7532    1.0000 </r>
       <r>    0.8073    1.0000 </r>
       <r>    2.2283    1.0000 </r>
       <r>    2.4560    1.0000 </r>
       <r>    2.9457    1.0000 </r>
       <r>    3.2251    1.0000 </r>
       <r>    3.2262    1.0000 </r>
       <r>    3.4173    1.0000 </r>
       <r>    3.6938    1.0000 </r>
       <r>    3.9600    1.0000 </r>
       <r>    4.4646    1.0000 </r>
       <r>    4.6103    1.0000 </r>
       <r>    5.1180    1.0000 </r>
       <r>    6.1939    0.0000 </r>
       <r>    6.4764    0.0000 </r>
       <r>    6.8343    0.0000 </r>
       <r>    7.2945    0.0000 </r>
       <r>    7.5230    0.0000 </r>
       <r>    8.0347    0.0000 </r>
       <r>    8.2735    0.0000 </r>
       <r>    8.5539    0.0000 </r>
       <r>    9.1756    0.0000 </r>
       <r>    9.4598    0.0000 </r>
       <r>    9.9774    0.0000 </r>
       <r>   10.5883    0.0000 </r>
       <r>   11.1303    0.0000 </r>
       <r>   11.8414    0.0000 </r>
       <r>   12.2593    0.0000 </r>
       <r>   12.5363    0.0000 </r>
       <r>   12.8630    0.0000 </r>
       <r>   12.9380    0.0000 </r>
       <r>   13.6325    0.0000 </r>
       <r>   13.7482    0.0000 </r>
      </set>
      <set comment="kpoint 18">
       <r>  -16.1611    1.0000 </r>
       <r>  -16.1536    1.0000 </r>
       <r>  -16.1512    1.0000 </r>
       <r>  -16.1504    1.0000 </r>
       <r>  -16.1488    1.0000 </r>
       <r>  -16.1471    1.0000 </r>
       <r>  -16.1425    1.0000 </r>
       <r>  -16.1409    1.0000 </r>
       <r>  -16.1313    1.0000 </r>
       <r>  -16.1278    1.0000 </r>
       <r>  -16.1247    1.0000 </r>
       <r>  -16.1209    1.0000 </r>
       <r>  -16.1175    1.0000 </r>
       <r>  -16.1155    1.0000 </r>
       <r>  -16.0968    1.0000 </r>
       <r>  -16.0924    1.0000 </r>
       <r>  -16.0909    1.0000 </r>
       <r>  -16.0880    1.0000 </r>
       <r>  -16.0786    1.0000 </r>
       <r>  -16.0750    1.0000 </r>
       <r>   -8.0920    1.0000 </r>
       <r>   -7.7907    1.0000 </r>
       <r>   -7.5123    1.0000 </r>
       <r>   -7.1705    1.0000 </r>
       <r>   -2.7463    1.0000 </r>
       <r>   -1.9483    1.0000 </r>
       <r>   -1.4200    1.0000 </r>
       <r>   -0.8090    1.0000 </r>
       <r>    0.8521    1.0000 </r>
       <r>    2.2242    1.0000 </r>
       <r>    2.4962    1.0000 </r>
       <r>    2.9731    1.0000 </r>
       <r>    3.2361    1.0000 </r>
       <r>    3.2857    1.0000 </r>
       <r>    3.4523    1.0000 </r>
       <r>    3.6875    1.0000 </r>
       <r>    3.9744    1.0000 </r>
       <r>    4.5498    1.0000 </r>
       <r>    4.5989    1.0000 </r>
       <r>    5.1400    1.0000 </r>
       <r>    6.1474    0.0000 </r>
       <r>    6.5367    0.0000 </r>
       <r>    6.7520    0.0000 </r>
       <r>    7.2289    0.0000 </r>
       <r>    7.4369    0.0000 </r>
       <r>    7.9505    0.0000 </r>
       <r>    8.2093    0.0000 </r>
       <r>    8.5078    0.0000 </r>
       <r>    9.0795    0.0000 </r>
       <r>    9.3771    0.0000 </r>
       <r>   10.0570    0.0000 </r>
       <r>   10.6406    0.0000 </r>
       <r>   11.2334    0.0000 </r>
       <r>   11.8985    0.0000 </r>
       <r>   12.2892    0.0000 </r>
       <r>   12.6514    0.0000 </r>
       <r>   12.8860    0.0000 </r>
       <r>   12.9944    0.0000 </r>
       <r>   13.5623    0.0000 </r>
       <r>   13.8062    0.0000 </r>
      </set>
      <set comment="kpoint 19">
       <r>  -16.1612    1.0000 </r>
       <r>  -16.1537    1.0000 </r>
       <r>  -16.1511    1.0000 </r>
       <r>  -16.1503    1.0000 </r>
       <r>  -16.1488    1.0000 </r>
       <r>  -16.1472    1.0000 </r>
       <r>  -16.1425    1.0000 </r>
       <r>  -16.1408    1.0000 </r>
       <r>  -16.1313    1.0000 </r>
       <r>  -16.1277    1.0000 </r>
       <r>  -16.1248    1.0000 </r>
       <r>  -16.1209    1.0000 </r>
       <r>  -16.1175    1.0000 </r>
       <r>  -16.1155    1.0000 </r>
       <r>  -16.0968    1.0000 </r>
       <r>  -16.0925    1.0000 </r>
       <r>  -16.0909    1.0000 </r>
       <r>  -16.0880    1.0000 </r>
       <r>  -16.0786    1.0000 </r>
       <r>  -16.0750    1.0000 </r>
       <r>   -8.0942    1.0000 </r>
       <r>   -7.7925    1.0000 </r>
       <r>   -7.5137    1.0000 </r>
       <r>   -7.1712    1.0000 </r>
       <r>   -2.7487    1.0000 </r>
       <r>   -1.9502    1.0000 </r>
       <r>   -1.4213    1.0000 </r>
       <r>   -0.8081    1.0000 </r>
       <r>    0.8493    1.0000 </r>
       <r>    2.2474    1.0000 </r>
       <r>    2.5422    1.0000 </r>
       <r>    2.9742    1.0000 </r>
       <r>    3.2460    1.0000 </r>
       <r>    3.2648    1.0000 </r>
       <r>    3.4521    1.0000 </r>
       <r>    3.7184    1.0000 </r>
       <r>    3.9591    1.0000 </r>
       <r>    4.5384    1.0000 </r>
       <r>    4.5924    1.0000 </r>
       <r>    5.1488    1.0000 </r>
       <r>    6.1214    0.0000 </r>
       <r>    6.5354    0.0000 </r>
       <r>    6.8134    0.0000 </r>
       <r>    7.1399    0.0000 </r>
       <r>    7.5288    0.0000 </r>
       <r>    7.9025    0.0000 </r>
       <r>    8.1773    0.0000 </r>
       <r>    8.5278    0.0000 </r>
       <r>    9.0542    0.0000 </r>
       <r>    9.3674    0.0000 </r>
       <r>   10.0533    0.0000 </r>
       <r>   10.6400    0.0000 </r>
       <r>   11.2183    0.0000 </r>
       <r>   11.8847    0.0000 </r>
       <r>   12.3944    0.0000 </r>
       <r>   12.6404    0.0000 </r>
       <r>   12.7730    0.0000 </r>
       <r>   12.9899    0.0000 </r>
       <r>   13.6213    0.0000 </r>
       <r>   13.8074    0.0000 </r>
      </set>
      <set comment="kpoint 20">
       <r>  -16.1612    1.0000 </r>
       <r>  -16.1537    1.0000 </r>
       <r>  -16.1511    1.0000 </r>
       <r>  -16.1503    1.0000 </r>
       <r>  -16.1488    1.0000 </r>
       <r>  -16.1472    1.0000 </r>
       <r>  -16.1425    1.0000 </r>
       <r>  -16.1408    1.0000 </r>
       <r>  -16.1313    1.0000 </r>
       <r>  -16.1277    1.0000 </r>
       <r>  -16.1248    1.0000 </r>
       <r>  -16.1209    1.0000 </r>
       <r>  -16.1175    1.0000 </r>
       <r>  -16.1155    1.0000 </r>
       <r>  -16.0968    1.0000 </r>
       <r>  -16.0925    1.0000 </r>
       <r>  -16.0909    1.0000 </r>
       <r>  -16.0880    1.0000 </r>
       <r>  -16.0786    1.0000 </r>
       <r>  -16.0750    1.0000 </r>
       <r>   -8.0942    1.0000 </r>
       <r>   -7.7925    1.0000 </r>
       <r>   -7.5137    1.0000 </r>
       <r>   -7.1712    1.0000 </r>
       <r>   -2.7487    1.0000 </r>
       <r>   -1.9502    1.0000 </r>
       <r>   -1.4213    1.0000 </r>
       <r>   -0.8081    1.0000 </r>
       <r>    0.8493    1.0000 </r>
       <r>    2.2474    1.0000 </r>
       <r>    2.5422    1.0000 </r>
       <r>    2.9742    1.0000 </r>
       <r>    3.2460    1.0000 </r>
       <r>    3.2648    1.0000 </r>
       <r>    3.4521    1.0000 </r>
       <r>    3.7184    1.0000 </r>
       <r>    3.9591    1.0000 </r>
       <r>    4.5384    1.0000 </r>
       <r>    4.5924    1.0000 </r>
       <r>    5.1488    1.0000 </r>
       <r>    6.1214    0.0000 </r>
       <r>    6.5354    0.0000 </r>
       <r>    6.8134    0.0000 </r>
       <r>    7.1399    0.0000 </r>
       <r>    7.5288    0.0000 </r>
       <r>    7.9025    0.0000 </r>
       <r>    8.1773    0.0000 </r>
       <r>    8.5278    0.0000 </r>
       <r>    9.0542    0.0000 </r>
       <r>    9.3674    0.0000 </r>
       <r>   10.0533    0.0000 </r>
       <r>   10.6400    0.0000 </r>
       <r>   11.2183    0.0000 </r>
       <r>   11.8848    0.0000 </r>
       <r>   12.3944    0.0000 </r>
       <r>   12.6405    0.0000 </r>
       <r>   12.7730    0.0000 </r>
       <r>   12.9901    0.0000 </r>
       <r>   13.6306    0.0000 </r>
       <r>   13.8837    0.0000 </r>
      </set>
      <set comment="kpoint 21">
       <r>  -16.1611    1.0000 </r>
       <r>  -16.1536    1.0000 </r>
       <r>  -16.1512    1.0000 </r>
       <r>  -16.1504    1.0000 </r>
       <r>  -16.1488    1.0000 </r>
       <r>  -16.1471    1.0000 </r>
       <r>  -16.1425    1.0000 </r>
       <r>  -16.1409    1.0000 </r>
       <r>  -16.1313    1.0000 </r>
       <r>  -16.1278    1.0000 </r>
       <r>  -16.1247    1.0000 </r>
       <r>  -16.1209    1.0000 </r>
       <r>  -16.1175    1.0000 </r>
       <r>  -16.1155    1.0000 </r>
       <r>  -16.0968    1.0000 </r>
       <r>  -16.0924    1.0000 </r>
       <r>  -16.0909    1.0000 </r>
       <r>  -16.0880    1.0000 </r>
       <r>  -16.0786    1.0000 </r>
       <r>  -16.0750    1.0000 </r>
       <r>   -8.0920    1.0000 </r>
       <r>   -7.7907    1.0000 </r>
       <r>   -7.5123    1.0000 </r>
       <r>   -7.1705    1.0000 </r>
       <r>   -2.7463    1.0000 </r>
       <r>   -1.9483    1.0000 </r>
       <r>   -1.4200    1.0000 </r>
       <r>   -0.8090    1.0000 </r>
       <r>    0.8521    1.0000 </r>
       <r>    2.2242    1.0000 </r>
       <r>    2.4962    1.0000 </r>
       <r>    2.9731    1.0000 </r>
       <r>    3.2361    1.0000 </r>
       <r>    3.2857    1.0000 </r>
       <r>    3.4523    1.0000 </r>
       <r>    3.6875    1.0000 </r>
       <r>    3.9744    1.0000 </r>
       <r>    4.5498    1.0000 </r>
       <r>    4.5989    1.0000 </r>
       <r>    5.1400    1.0000 </r>
       <r>    6.1474    0.0000 </r>
       <r>    6.5367    0.0000 </r>
       <r>    6.7520    0.0000 </r>
       <r>    7.2289    0.0000 </r>
       <r>    7.4369    0.0000 </r>
       <r>    7.9505    0.0000 </r>
       <r>    8.2093    0.0000 </r>
       <r>    8.5078    0.0000 </r>
       <r>    9.0795    0.0000 </r>
       <r>    9.3771    0.0000 </r>
       <r>   10.0570    0.0000 </r>
       <r>   10.6406    0.0000 </r>
       <r>   11.2334    0.0000 </r>
       <r>   11.8985    0.0000 </r>
       <r>   12.2892    0.0000 </r>
       <r>   12.6514    0.0000 </r>
       <r>   12.8860    0.0000 </r>
       <r>   12.9944    0.0000 </r>
       <r>   13.5658    0.0000 </r>
       <r>   13.8512    0.0000 </r>
      </set>
      <set comment="kpoint 22">
       <r>  -16.1604    1.0000 </r>
       <r>  -16.1539    1.0000 </r>
       <r>  -16.1509    1.0000 </r>
       <r>  -16.1506    1.0000 </r>
       <r>  -16.1491    1.0000 </r>
       <r>  -16.1473    1.0000 </r>
       <r>  -16.1426    1.0000 </r>
       <r>  -16.1411    1.0000 </r>
       <r>  -16.1311    1.0000 </r>
       <r>  -16.1280    1.0000 </r>
       <r>  -16.1239    1.0000 </r>
       <r>  -16.1201    1.0000 </r>
       <r>  -16.1177    1.0000 </r>
       <r>  -16.1154    1.0000 </r>
       <r>  -16.0966    1.0000 </r>
       <r>  -16.0928    1.0000 </r>
       <r>  -16.0907    1.0000 </r>
       <r>  -16.0882    1.0000 </r>
       <r>  -16.0783    1.0000 </r>
       <r>  -16.0753    1.0000 </r>
       <r>   -8.0373    1.0000 </r>
       <r>   -7.7397    1.0000 </r>
       <r>   -7.5312    1.0000 </r>
       <r>   -7.2017    1.0000 </r>
       <r>   -2.7855    1.0000 </r>
       <r>   -2.0978    1.0000 </r>
       <r>   -1.4474    1.0000 </r>
       <r>   -0.9173    1.0000 </r>
       <r>    0.9485    1.0000 </r>
       <r>    2.1897    1.0000 </r>
       <r>    2.5818    1.0000 </r>
       <r>    3.0290    1.0000 </r>
       <r>    3.2491    1.0000 </r>
       <r>    3.4107    1.0000 </r>
       <r>    3.5202    1.0000 </r>
       <r>    3.6683    1.0000 </r>
       <r>    4.0162    1.0000 </r>
       <r>    4.5852    1.0000 </r>
       <r>    4.7096    1.0000 </r>
       <r>    5.1377    1.0000 </r>
       <r>    6.1049    0.0000 </r>
       <r>    6.6015    0.0000 </r>
       <r>    6.6611    0.0000 </r>
       <r>    7.1166    0.0000 </r>
       <r>    7.2624    0.0000 </r>
       <r>    7.7797    0.0000 </r>
       <r>    8.0720    0.0000 </r>
       <r>    8.4290    0.0000 </r>
       <r>    8.8866    0.0000 </r>
       <r>    9.2142    0.0000 </r>
       <r>   10.2196    0.0000 </r>
       <r>   10.7365    0.0000 </r>
       <r>   11.4630    0.0000 </r>
       <r>   12.0086    0.0000 </r>
       <r>   12.3777    0.0000 </r>
       <r>   12.8581    0.0000 </r>
       <r>   12.9592    0.0000 </r>
       <r>   13.1130    0.0000 </r>
       <r>   13.4552    0.0000 </r>
       <r>   13.9226    0.0000 </r>
      </set>
      <set comment="kpoint 23">
       <r>  -16.1605    1.0000 </r>
       <r>  -16.1540    1.0000 </r>
       <r>  -16.1508    1.0000 </r>
       <r>  -16.1506    1.0000 </r>
       <r>  -16.1492    1.0000 </r>
       <r>  -16.1474    1.0000 </r>
       <r>  -16.1425    1.0000 </r>
       <r>  -16.1410    1.0000 </r>
       <r>  -16.1310    1.0000 </r>
       <r>  -16.1279    1.0000 </r>
       <r>  -16.1239    1.0000 </r>
       <r>  -16.1201    1.0000 </r>
       <r>  -16.1177    1.0000 </r>
       <r>  -16.1155    1.0000 </r>
       <r>  -16.0967    1.0000 </r>
       <r>  -16.0929    1.0000 </r>
       <r>  -16.0907    1.0000 </r>
       <r>  -16.0882    1.0000 </r>
       <r>  -16.0783    1.0000 </r>
       <r>  -16.0752    1.0000 </r>
       <r>   -8.0395    1.0000 </r>
       <r>   -7.7415    1.0000 </r>
       <r>   -7.5326    1.0000 </r>
       <r>   -7.2025    1.0000 </r>
       <r>   -2.7881    1.0000 </r>
       <r>   -2.1000    1.0000 </r>
       <r>   -1.4490    1.0000 </r>
       <r>   -0.9171    1.0000 </r>
       <r>    0.9458    1.0000 </r>
       <r>    2.2055    1.0000 </r>
       <r>    2.6288    1.0000 </r>
       <r>    3.0437    1.0000 </r>
       <r>    3.2761    1.0000 </r>
       <r>    3.3695    1.0000 </r>
       <r>    3.5216    1.0000 </r>
       <r>    3.6996    1.0000 </r>
       <r>    4.0005    1.0000 </r>
       <r>    4.5757    1.0000 </r>
       <r>    4.7062    1.0000 </r>
       <r>    5.1468    1.0000 </r>
[...]
       <r>   -7.2054    1.0000 </r>
       <r>   -2.7824    1.0000 </r>
       <r>   -2.1106    1.0000 </r>
       <r>   -1.4467    1.0000 </r>
       <r>   -0.9258    1.0000 </r>
       <r>    0.9686    1.0000 </r>
       <r>    2.2250    1.0000 </r>
       <r>    2.6486    1.0000 </r>
       <r>    3.0366    1.0000 </r>
       <r>    3.2895    1.0000 </r>
       <r>    3.2984    1.0000 </r>
       <r>    3.5459    1.0000 </r>
       <r>    3.7076    1.0000 </r>
       <r>    4.0008    1.0000 </r>
       <r>    4.5369    1.0000 </r>
       <r>    4.7161    1.0000 </r>
       <r>    5.1453    1.0000 </r>
       <r>    6.0702    0.0000 </r>
       <r>    6.6647    0.0000 </r>
       <r>    6.7396    0.0000 </r>
       <r>    7.0096    0.0000 </r>
       <r>    7.3901    0.0000 </r>
       <r>    7.6780    0.0000 </r>
       <r>    8.0206    0.0000 </r>
       <r>    8.4729    0.0000 </r>
       <r>    8.8463    0.0000 </r>
       <r>    9.1830    0.0000 </r>
       <r>   10.1989    0.0000 </r>
       <r>   10.7195    0.0000 </r>
       <r>   11.4571    0.0000 </r>
       <r>   11.9814    0.0000 </r>
       <r>   12.5628    0.0000 </r>
       <r>   12.6564    0.0000 </r>
       <r>   12.9777    0.0000 </r>
       <r>   13.1235    0.0000 </r>
       <r>   13.6041    0.0000 </r>
       <r>   14.2060    0.0000 </r>
      </set>
      <set comment="kpoint 61">
       <r>  -16.1601    1.0000 </r>
       <r>  -16.1544    1.0000 </r>
       <r>  -16.1506    1.0000 </r>
       <r>  -16.1505    1.0000 </r>
       <r>  -16.1495    1.0000 </r>
       <r>  -16.1475    1.0000 </r>
       <r>  -16.1425    1.0000 </r>
       <r>  -16.1412    1.0000 </r>
       <r>  -16.1308    1.0000 </r>
       <r>  -16.1281    1.0000 </r>
       <r>  -16.1235    1.0000 </r>
       <r>  -16.1198    1.0000 </r>
       <r>  -16.1177    1.0000 </r>
       <r>  -16.1155    1.0000 </r>
       <r>  -16.0965    1.0000 </r>
       <r>  -16.0932    1.0000 </r>
       <r>  -16.0905    1.0000 </r>
       <r>  -16.0883    1.0000 </r>
       <r>  -16.0782    1.0000 </r>
       <r>  -16.0754    1.0000 </r>
       <r>   -8.0102    1.0000 </r>
       <r>   -7.7255    1.0000 </r>
       <r>   -7.5346    1.0000 </r>
       <r>   -7.2224    1.0000 </r>
       <r>   -2.7965    1.0000 </r>
       <r>   -2.1795    1.0000 </r>
       <r>   -1.4581    1.0000 </r>
       <r>   -0.9783    1.0000 </r>
       <r>    1.0198    1.0000 </r>
       <r>    2.1925    1.0000 </r>
       <r>    2.6928    1.0000 </r>
       <r>    3.0738    1.0000 </r>
       <r>    3.3005    1.0000 </r>
       <r>    3.3410    1.0000 </r>
       <r>    3.5905    1.0000 </r>
       <r>    3.6953    1.0000 </r>
       <r>    4.0244    1.0000 </r>
       <r>    4.5373    1.0000 </r>
       <r>    4.7881    1.0000 </r>
       <r>    5.1255    1.0000 </r>
       <r>    6.0735    0.0000 </r>
       <r>    6.5962    0.0000 </r>
       <r>    6.7946    0.0000 </r>
       <r>    6.9705    0.0000 </r>
       <r>    7.3014    0.0000 </r>
       <r>    7.5929    0.0000 </r>
       <r>    7.9486    0.0000 </r>
       <r>    8.4424    0.0000 </r>
       <r>    8.7466    0.0000 </r>
       <r>    9.1007    0.0000 </r>
       <r>   10.2783    0.0000 </r>
       <r>   10.7610    0.0000 </r>
       <r>   11.5840    0.0000 </r>
       <r>   12.0428    0.0000 </r>
       <r>   12.6147    0.0000 </r>
       <r>   12.7244    0.0000 </r>
       <r>   13.0352    0.0000 </r>
       <r>   13.1810    0.0000 </r>
       <r>   13.5165    0.0000 </r>
       <r>   14.0601    0.0000 </r>
      </set>
     </set>
    </set>
   </array>
  </eigenvalues>
  <separator name="orbital magnetization" >
   <v name="MAGDIPOLOUT">      0.00000000      0.00000000      0.00000000</v>
  </separator>
  <dos>
   <i name="efermi">      5.40036924 </i>
   <total>
    <array>
     <dimension dim="1">gridpoints</dimension>
     <dimension dim="2">spin</dimension>
     <field>energy</field>
     <field>total</field>
     <field>integrated</field>
     <set>
      <set comment="spin 1">
       <r>   -17.6811     0.0000     0.0000 </r>
       <r>   -17.5697     0.0000     0.0000 </r>
       <r>   -17.4582     0.0000     0.0000 </r>
       <r>   -17.3468     0.0000     0.0000 </r>
       <r>   -17.2354     0.0000     0.0000 </r>
       <r>   -17.1239     0.0000     0.0000 </r>
       <r>   -17.0125     0.0000     0.0000 </r>
       <r>   -16.9011     0.0000     0.0000 </r>
       <r>   -16.7896     0.0000     0.0000 </r>
       <r>   -16.6782     0.0000     0.0000 </r>
       <r>   -16.5667     0.0000     0.0000 </r>
       <r>   -16.4553     0.0000     0.0000 </r>
       <r>   -16.3439     0.0000     0.0000 </r>
       <r>   -16.2324     1.6085     0.1792 </r>
       <r>   -16.1210   186.0747    20.9149 </r>
       <r>   -16.0096   169.4203    39.7947 </r>
       <r>   -15.8981     1.8423    40.0000 </r>
       <r>   -15.7867     0.0000    40.0000 </r>
       <r>   -15.6752     0.0000    40.0000 </r>
       <r>   -15.5638     0.0000    40.0000 </r>
       <r>   -15.4524     0.0000    40.0000 </r>
       <r>   -15.3409     0.0000    40.0000 </r>
       <r>   -15.2295     0.0000    40.0000 </r>
       <r>   -15.1181     0.0000    40.0000 </r>
       <r>   -15.0066     0.0000    40.0000 </r>
       <r>   -14.8952     0.0000    40.0000 </r>
       <r>   -14.7837     0.0000    40.0000 </r>
       <r>   -14.6723     0.0000    40.0000 </r>
       <r>   -14.5609     0.0000    40.0000 </r>
       <r>   -14.4494     0.0000    40.0000 </r>
       <r>   -14.3380     0.0000    40.0000 </r>
       <r>   -14.2266     0.0000    40.0000 </r>
       <r>   -14.1151     0.0000    40.0000 </r>
       <r>   -14.0037     0.0000    40.0000 </r>
       <r>   -13.8922     0.0000    40.0000 </r>
       <r>   -13.7808     0.0000    40.0000 </r>
       <r>   -13.6694     0.0000    40.0000 </r>
       <r>   -13.5579     0.0000    40.0000 </r>
       <r>   -13.4465     0.0000    40.0000 </r>
       <r>   -13.3351     0.0000    40.0000 </r>
       <r>   -13.2236     0.0000    40.0000 </r>
       <r>   -13.1122     0.0000    40.0000 </r>
       <r>   -13.0007     0.0000    40.0000 </r>
       <r>   -12.8893     0.0000    40.0000 </r>
       <r>   -12.7779     0.0000    40.0000 </r>
       <r>   -12.6664     0.0000    40.0000 </r>
       <r>   -12.5550     0.0000    40.0000 </r>
       <r>   -12.4436     0.0000    40.0000 </r>
       <r>   -12.3321     0.0000    40.0000 </r>
       <r>   -12.2207     0.0000    40.0000 </r>
       <r>   -12.1092     0.0000    40.0000 </r>
       <r>   -11.9978     0.0000    40.0000 </r>
       <r>   -11.8864     0.0000    40.0000 </r>
       <r>   -11.7749     0.0000    40.0000 </r>
       <r>   -11.6635     0.0000    40.0000 </r>
       <r>   -11.5521     0.0000    40.0000 </r>
       <r>   -11.4406     0.0000    40.0000 </r>
       <r>   -11.3292     0.0000    40.0000 </r>
       <r>   -11.2177     0.0000    40.0000 </r>
       <r>   -11.1063     0.0000    40.0000 </r>
       <r>   -10.9949     0.0000    40.0000 </r>
       <r>   -10.8834     0.0000    40.0000 </r>
       <r>   -10.7720     0.0000    40.0000 </r>
       <r>   -10.6606     0.0000    40.0000 </r>
       <r>   -10.5491     0.0000    40.0000 </r>
       <r>   -10.4377     0.0000    40.0000 </r>
       <r>   -10.3262     0.0000    40.0000 </r>
       <r>   -10.2148     0.0000    40.0000 </r>
       <r>   -10.1034     0.0000    40.0000 </r>
       <r>    -9.9919     0.0000    40.0000 </r>
       <r>    -9.8805     0.0000    40.0000 </r>
       <r>    -9.7691     0.0000    40.0000 </r>
       <r>    -9.6576     0.0000    40.0000 </r>
       <r>    -9.5462     0.0000    40.0000 </r>
       <r>    -9.4347     0.0000    40.0000 </r>
       <r>    -9.3233     0.0000    40.0000 </r>
       <r>    -9.2119     0.0000    40.0000 </r>
       <r>    -9.1004     0.0000    40.0000 </r>
       <r>    -8.9890     0.0000    40.0000 </r>
       <r>    -8.8776     0.0000    40.0000 </r>
       <r>    -8.7661     0.0000    40.0000 </r>
       <r>    -8.6547     0.0000    40.0000 </r>
       <r>    -8.5432     0.0000    40.0000 </r>
       <r>    -8.4318     0.0000    40.0000 </r>
       <r>    -8.3204     0.0000    40.0000 </r>
       <r>    -8.2089     0.0177    40.0020 </r>
       <r>    -8.0975     4.6241    40.5173 </r>
       <r>    -7.9861    12.3907    41.8981 </r>
       <r>    -7.8746     1.1182    42.0227 </r>
       <r>    -7.7632     9.7862    43.1132 </r>
       <r>    -7.6517     7.8626    43.9894 </r>
       <r>    -7.5403     5.3565    44.5863 </r>
       <r>    -7.4289    12.5602    45.9860 </r>
       <r>    -7.3174     0.1364    46.0012 </r>
       <r>    -7.2060     5.8503    46.6531 </r>
       <r>    -7.0946    11.9151    47.9809 </r>
       <r>    -6.9831     0.1713    48.0000 </r>
       <r>    -6.8717     0.0000    48.0000 </r>
       <r>    -6.7602     0.0000    48.0000 </r>
       <r>    -6.6488     0.0000    48.0000 </r>
       <r>    -6.5374     0.0000    48.0000 </r>
       <r>    -6.4259     0.0000    48.0000 </r>
       <r>    -6.3145     0.0000    48.0000 </r>
       <r>    -6.2031     0.0000    48.0000 </r>
       <r>    -6.0916     0.0000    48.0000 </r>
       <r>    -5.9802     0.0000    48.0000 </r>
       <r>    -5.8687     0.0000    48.0000 </r>
       <r>    -5.7573     0.0000    48.0000 </r>
       <r>    -5.6459     0.0000    48.0000 </r>
       <r>    -5.5344     0.0000    48.0000 </r>
       <r>    -5.4230     0.0000    48.0000 </r>
       <r>    -5.3116     0.0000    48.0000 </r>
       <r>    -5.2001     0.0000    48.0000 </r>
       <r>    -5.0887     0.0000    48.0000 </r>
       <r>    -4.9772     0.0000    48.0000 </r>
       <r>    -4.8658     0.0000    48.0000 </r>
       <r>    -4.7544     0.0000    48.0000 </r>
       <r>    -4.6429     0.0000    48.0000 </r>
       <r>    -4.5315     0.0000    48.0000 </r>
       <r>    -4.4201     0.0000    48.0000 </r>
       <r>    -4.3086     0.0000    48.0000 </r>
       <r>    -4.1972     0.0000    48.0000 </r>
       <r>    -4.0857     0.0000    48.0000 </r>
       <r>    -3.9743     0.0000    48.0000 </r>
       <r>    -3.8629     0.0000    48.0000 </r>
       <r>    -3.7514     0.0000    48.0000 </r>
       <r>    -3.6400     0.0000    48.0000 </r>
       <r>    -3.5286     0.0000    48.0000 </r>
       <r>    -3.4171     0.0000    48.0000 </r>
       <r>    -3.3057     0.0000    48.0000 </r>
       <r>    -3.1942     0.0000    48.0000 </r>
       <r>    -3.0828     0.0000    48.0000 </r>
       <r>    -2.9714     0.0000    48.0000 </r>
       <r>    -2.8599     0.2027    48.0226 </r>
       <r>    -2.7485    11.4563    49.2993 </r>
       <r>    -2.6371     6.2620    49.9971 </r>
       <r>    -2.5256     0.0263    50.0000 </r>
       <r>    -2.4142     0.0000    50.0000 </r>
       <r>    -2.3027     0.0004    50.0000 </r>
       <r>    -2.1913     0.8206    50.0915 </r>
       <r>    -2.0799     4.4292    50.5851 </r>
       <r>    -1.9684     8.0554    51.4827 </r>
       <r>    -1.8570     3.8575    51.9126 </r>
       <r>    -1.7456     0.7839    52.0000 </r>
       <r>    -1.6341     0.0004    52.0000 </r>
       <r>    -1.5227     0.1857    52.0207 </r>
       <r>    -1.4112    12.4473    53.4078 </r>
       <r>    -1.2998     5.3064    53.9991 </r>
       <r>    -1.1884     0.0079    54.0000 </r>
       <r>    -1.0769     0.0042    54.0005 </r>
       <r>    -0.9655     1.7898    54.1999 </r>
       <r>    -0.8541     8.4953    55.1466 </r>
       <r>    -0.7426     6.6010    55.8822 </r>
       <r>    -0.6312     1.0563    55.9999 </r>
       <r>    -0.5197     0.0007    56.0000 </r>
       <r>    -0.4083     0.0000    56.0000 </r>
       <r>    -0.2969     0.0000    56.0000 </r>
       <r>    -0.1854     0.0000    56.0000 </r>
       <r>    -0.0740     0.0000    56.0000 </r>
       <r>     0.0374     0.0000    56.0000 </r>
       <r>     0.1489     0.0000    56.0000 </r>
       <r>     0.2603     0.0000    56.0000 </r>
       <r>     0.3718     0.0000    56.0000 </r>
       <r>     0.4832     0.0000    56.0000 </r>
       <r>     0.5946     0.0000    56.0000 </r>
       <r>     0.7061     0.0049    56.0005 </r>
       <r>     0.8175     1.9337    56.2160 </r>
       <r>     0.9289     9.2112    57.2425 </r>
       <r>     1.0404     6.3572    57.9509 </r>
       <r>     1.1518     0.4403    58.0000 </r>
       <r>     1.2633     0.0001    58.0000 </r>
       <r>     1.3747     0.0000    58.0000 </r>
       <r>     1.4861     0.0000    58.0000 </r>
       <r>     1.5976     0.0000    58.0000 </r>
       <r>     1.7090     0.0000    58.0000 </r>
       <r>     1.8204     0.0000    58.0000 </r>
       <r>     1.9319     0.0000    58.0000 </r>
       <r>     2.0433     0.0004    58.0000 </r>
       <r>     2.1548     1.1228    58.1252 </r>
       <r>     2.2662    13.4073    59.6192 </r>
       <r>     2.3776     3.4220    60.0006 </r>
       <r>     2.4891     1.5547    60.1738 </r>
       <r>     2.6005     9.7539    61.2608 </r>
       <r>     2.7119     6.0780    61.9381 </r>
       <r>     2.8234     0.5574    62.0002 </r>
       <r>     2.9348     1.9415    62.2166 </r>
       <r>     3.0463    12.0185    63.5559 </r>
       <r>     3.1577     5.0969    64.1239 </r>
       <r>     3.2691    14.8157    65.7749 </r>
       <r>     3.3806    17.5025    67.7253 </r>
       <r>     3.4920    10.7402    68.9222 </r>
       <r>     3.6034     9.3244    69.9613 </r>
       <r>     3.7149    11.4093    71.2327 </r>
       <r>     3.8263     6.8701    71.9983 </r>
       <r>     3.9378     2.5363    72.2809 </r>
       <r>     4.0492    14.1182    73.8542 </r>
       <r>     4.1606     1.3078    74.0000 </r>
       <r>     4.2721     0.0003    74.0000 </r>
       <r>     4.3835     0.0986    74.0110 </r>
       <r>     4.4949     3.2244    74.3703 </r>
       <r>     4.6064    17.3865    76.3078 </r>
       <r>     4.7178    11.4562    77.5845 </r>
       <r>     4.8293     3.4829    77.9726 </r>
       <r>     4.9407     0.2461    78.0000 </r>
       <r>     5.0521     0.2041    78.0227 </r>
       <r>     5.1636    13.1005    79.4826 </r>
       <r>     5.2750     4.6405    79.9997 </r>
       <r>     5.3864     0.0023    80.0000 </r>
       <r>     5.4979     0.0000    80.0000 </r>
       <r>     5.6093     0.0000    80.0000 </r>
       <r>     5.7208     0.0000    80.0000 </r>
       <r>     5.8322     0.0000    80.0000 </r>
       <r>     5.9436     0.0006    80.0001 </r>
       <r>     6.0551     2.2297    80.2485 </r>
       <r>     6.1665    13.5815    81.7620 </r>
       <r>     6.2779     2.1290    81.9993 </r>
       <r>     6.3894     0.0189    82.0014 </r>
       <r>     6.5008     1.9075    82.2140 </r>
       <r>     6.6123     8.6006    83.1724 </r>
       <r>     6.7237    14.2977    84.7657 </r>
       <r>     6.8351     7.4802    85.5992 </r>
       <r>     6.9466     3.3017    85.9672 </r>
       <r>     7.0580     5.9349    86.6285 </r>
       <r>     7.1694     8.5533    87.5817 </r>
       <r>     7.2809     5.1553    88.1562 </r>
       <r>     7.3923     6.0206    88.8271 </r>
       <r>     7.5038     5.6878    89.4610 </r>
       <r>     7.6152     4.4748    89.9596 </r>
       <r>     7.7266     4.7204    90.4856 </r>
       <r>     7.8381     5.9724    91.1512 </r>
       <r>     7.9495     6.1152    91.8327 </r>
       <r>     8.0609     6.4457    92.5510 </r>
       <r>     8.1724     8.5316    93.5017 </r>
       <r>     8.2838     4.1022    93.9588 </r>
       <r>     8.3953     1.1745    94.0897 </r>
       <r>     8.5067    10.0942    95.2146 </r>
       <r>     8.6181     6.6295    95.9534 </r>
       <r>     8.7296     1.0956    96.0755 </r>
       <r>     8.8410     2.8670    96.3949 </r>
       <r>     8.9524     4.5078    96.8973 </r>
       <r>     9.0639     6.4076    97.6113 </r>
       <r>     9.1753     6.0637    98.2871 </r>
       <r>     9.2868     6.8354    99.0488 </r>
       <r>     9.3982     5.5673    99.6692 </r>
       <r>     9.5096     2.8192    99.9833 </r>
       <r>     9.6211     0.1496   100.0000 </r>
       <r>     9.7325     0.0000   100.0000 </r>
       <r>     9.8439     0.0007   100.0001 </r>
       <r>     9.9554     0.9668   100.1078 </r>
       <r>    10.0668     3.8188   100.5334 </r>
       <r>    10.1782     7.6967   101.3911 </r>
       <r>    10.2897     3.9576   101.8321 </r>
       <r>    10.4011     1.5025   101.9995 </r>
       <r>    10.5126     0.0773   102.0082 </r>
       <r>    10.6240     3.6559   102.4156 </r>
       <r>    10.7354    10.1640   103.5482 </r>
       <r>    10.8469     3.9900   103.9928 </r>
       <r>    10.9583     0.0643   104.0000 </r>
       <r>    11.0697     0.2649   104.0295 </r>
       <r>    11.1812     2.6387   104.3236 </r>
       <r>    11.2926     3.0205   104.6602 </r>
       <r>    11.4041     6.6408   105.4002 </r>
       <r>    11.5155     2.7049   105.7016 </r>
       <r>    11.6269     2.4218   105.9715 </r>
       <r>    11.7384     0.2917   106.0040 </r>
       <r>    11.8498     2.6166   106.2956 </r>
       <r>    11.9612     8.5399   107.2473 </r>
       <r>    12.0727     5.9813   107.9138 </r>
       <r>    12.1841     0.7839   108.0012 </r>
       <r>    12.2956     1.3898   108.1560 </r>
       <r>    12.4070     5.6350   108.7840 </r>
       <r>    12.5184     9.0687   109.7946 </r>
       <r>    12.6299     6.9153   110.5652 </r>
       <r>    12.7413     8.5891   111.5224 </r>
       <r>    12.8527     9.0277   112.5284 </r>
       <r>    12.9642    11.7709   113.8401 </r>
       <r>    13.0756    12.0857   115.1869 </r>
       <r>    13.1871     6.3976   115.8998 </r>
       <r>    13.2985     0.8982   115.9999 </r>
       <r>    13.4099     0.1215   116.0135 </r>
       <r>    13.5214     6.1182   116.6953 </r>
       <r>    13.6328     9.0403   117.7027 </r>
       <r>    13.7442     3.0999   118.0482 </r>
       <r>    13.8557     3.6055   118.4499 </r>
       <r>    13.9671     7.3765   119.2720 </r>
       <r>    14.0786     4.2669   119.7475 </r>
       <r>    14.1900     1.7682   119.9445 </r>
       <r>    14.3014     0.4904   119.9992 </r>
       <r>    14.4129     0.0076   120.0000 </r>
       <r>    14.5243     0.0000   120.0000 </r>
       <r>    14.6357     0.0000   120.0000 </r>
       <r>    14.7472     0.0000   120.0000 </r>
       <r>    14.8586     0.0000   120.0000 </r>
       <r>    14.9701     0.0000   120.0000 </r>
       <r>    15.0815     0.0000   120.0000 </r>
       <r>    15.1929     0.0000   120.0000 </r>
       <r>    15.3044     0.0000   120.0000 </r>
       <r>    15.4158     0.0000   120.0000 </r>
       <r>    15.5272     0.0000   120.0000 </r>
       <r>    15.6387     0.0000   120.0000 </r>
       <r>    15.7501     0.0000   120.0000 </r>
      </set>
     </set>
    </array>
   </total>
  </dos>
 </calculation>
 <structure name="finalpos" >
  <crystal>
   <varray name="basis" >
    <v>       4.16842225       0.00000000       0.00000000 </v>
    <v>       0.00000000       4.53967086       0.00000000 </v>
    <v>       0.00000000       0.00000000      11.56850013 </v>
   </varray>
   <i name="volume">    218.91379385 </i>
   <varray name="rec_basis" >
    <v>       0.23989892      -0.00000000       0.00000000 </v>
    <v>       0.00000000       0.22028029       0.00000000 </v>
    <v>      -0.00000000      -0.00000000       0.08644163 </v>
   </varray>
  </crystal>
  <varray name="positions" >
   <v>       0.25000000       0.11238621       0.11664596 </v>
   <v>       0.75000000       0.88761379       0.88335404 </v>
   <v>       0.75000000       0.61238621       0.38335404 </v>
   <v>       0.25000000       0.38761379       0.61664596 </v>
   <v>       0.75000000       0.51916418       0.14510650 </v>
   <v>       0.25000000       0.48083582       0.85489350 </v>
   <v>       0.25000000       0.01916418       0.35489350 </v>
   <v>       0.75000000       0.98083582       0.64510650 </v>
  </varray>
 </structure>
</modeling>
