 vasp.5.4.4.18Apr17-6-g9f103f2a35 (build Mar 20 2018 18:07:30) complex           
 executed on             LinuxGNU date 2020.07.10  18:47:09
 running on    8 total cores
 distrk:  each k-point on    8 cores,    1 groups
 distr:  one band on NCORES_PER_BAND=   2 cores,    4 groups


--------------------------------------------------------------------------------------------------------


 INCAR:
 POTCAR:    PAW_PBE Te 08Apr2002                  
 POTCAR:    PAW_PBE Pb_d 06Sep2000                
 POTCAR:    PAW_PBE Te 08Apr2002                  
   VRHFIN =Te: s2p4                                                             
   LEXCH  = PE                                                                  
   EATOM  =   223.2721 eV,   16.4100 Ry                                         
                                                                                
   TITEL  = PAW_PBE Te 08Apr2002                                                
   LULTRA =        F    use ultrasoft PP ?                                      
   IUNSCR =        1    unscreen: 0-lin 1-nonlin 2-no                           
   RPACOR =    2.200    partial core radius                                     
   POMASS =  127.600; ZVAL   =    6.000    mass and valenz                      
   RCORE  =    2.300    outmost cutoff radius                                   
   RWIGS  =    2.900; RWIGS  =    1.535    wigner-seitz radius (au A)           
   ENMAX  =  174.982; ENMIN  =  131.236 eV                                      
   ICORE  =        3    local potential                                         
   LCOR   =        T    correct aug charges                                     
   LPAW   =        T    paw PP                                                  
   EAUG   =  368.792                                                            
   DEXC   =    0.000                                                            
   RMAX   =    2.345    core radius for proj-oper                               
   RAUG   =    1.300    factor for augmentation sphere                          
   RDEP   =    2.397    radius for radial grids                                 
   RDEPT  =    2.174    core radius for aug-charge                              
                                                                                
   Atomic configuration                                                         
   13 entries                                                                   
     n  l   j            E        occ.                                          
     1  0  0.50    -31621.2075   2.0000                                         
     2  0  0.50     -4848.7941   2.0000                                         
     2  1  1.50     -4352.1960   6.0000                                         
     3  0  0.50      -964.9612   2.0000                                         
     3  1  1.50      -803.6179   6.0000                                         
     3  2  2.50      -559.8710  10.0000                                         
     4  0  0.50      -164.3522   2.0000                                         
     4  1  1.50      -114.3756   6.0000                                         
     4  2  2.50       -41.6483  10.0000                                         
     5  0  0.50       -15.1072   2.0000                                         
     5  1  0.50        -5.9526   4.0000                                         
     5  2  1.50        -5.4423   0.0000                                         
     4  3  2.50        -5.4423   0.0000                                         
   Description                                                                  
     l       E           TYP  RCUT    TYP  RCUT                                 
     0    -15.1072389     23  2.300                                             
     0    -16.4678215     23  2.300                                             
     1     -5.9526306     23  2.300                                             
     1     -2.4873968     23  2.300                                             
     2     -5.4423304     23  2.300                                             
     3     -1.3605826     23  2.300                                             
  local pseudopotential read in
  partial core-charges read in
  partial kinetic energy density read in
  atomic valenz-charges read in
  non local Contribution for L=           0  read in
    real space projection operators read in
  non local Contribution for L=           0  read in
    real space projection operators read in
  non local Contribution for L=           1  read in
    real space projection operators read in
  non local Contribution for L=           1  read in
    real space projection operators read in
  non local Contribution for L=           2  read in
    real space projection operators read in
    PAW grid and wavefunctions read in

   number of l-projection  operators is LMAX  =           5
   number of lm-projection operators is LMMAX =          13

 POTCAR:    PAW_PBE Pb_d 06Sep2000                
   VRHFIN =Pb:                                                                  
   LEXCH  = PE                                                                  
   EATOM  =  1661.6185 eV,  122.1255 Ry                                         
                                                                                
   TITEL  = PAW_PBE Pb_d 06Sep2000                                              
   LULTRA =        F    use ultrasoft PP ?                                      
   IUNSCR =        1    unscreen: 0-lin 1-nonlin 2-no                           
   RPACOR =    2.200    partial core radius                                     
   POMASS =  207.200; ZVAL   =   14.000    mass and valenz                      
   RCORE  =    2.500    outmost cutoff radius                                   
   RWIGS  =    3.260; RWIGS  =    1.725    wigner-seitz radius (au A)           
   ENMAX  =  237.835; ENMIN  =  178.376 eV                                      
   ICORE  =        3    local potential                                         
   LCOR   =        T    correct aug charges                                     
   LPAW   =        T    paw PP                                                  
   EAUG   =  391.914                                                            
   DEXC   =    0.000                                                            
   RMAX   =    2.565    core radius for proj-oper                               
   RAUG   =    1.300    factor for augmentation sphere                          
   RDEP   =    2.643    radius for radial grids                                 
   RDEPT  =    2.092    core radius for aug-charge                              
                                                                                
   Atomic configuration                                                         
   16 entries                                                                   
     n  l   j            E        occ.                                          
     1  0  0.50    -88091.8466   2.0000                                         
     2  0  0.50    -15753.4197   2.0000                                         
     2  1  1.50    -13508.1797   6.0000                                         
     3  0  0.50     -3781.7194   2.0000                                         
     3  1  1.50     -3138.2529   6.0000                                         
     3  2  2.50     -2483.2977  10.0000                                         
     4  0  0.50      -856.2895   2.0000                                         
     4  1  1.50      -645.4942   6.0000                                         
     4  2  2.50      -401.8768  10.0000                                         
     4  3  3.50      -132.9059  14.0000                                         
     5  0  0.50      -144.0950   2.0000                                         
     5  1  1.50       -85.7879   6.0000                                         
     5  2  2.50       -21.1769  10.0000                                         
     6  0  0.50       -12.0372   2.0000                                         
     6  1  1.50        -3.4971   2.0000                                         
     5  3  2.50        -2.7212   0.0000                                         
   Description                                                                  
     l       E           TYP  RCUT    TYP  RCUT                                 
     2    -21.1768523     23  2.500                                             
     2      1.3605826     23  2.500                                             
     0    -12.0371562     23  2.500                                             
     0     13.6058260     23  2.500                                             
     1     -3.4971339     23  2.500                                             
     1     13.6058260     23  2.500                                             
     3     -1.3605826      7  2.500                                             
  local pseudopotential read in
  partial core-charges read in
  partial kinetic energy density read in
  atomic valenz-charges read in
  non local Contribution for L=           2  read in
    real space projection operators read in
  non local Contribution for L=           2  read in
    real space projection operators read in
  non local Contribution for L=           0  read in
    real space projection operators read in
  non local Contribution for L=           0  read in
    real space projection operators read in
  non local Contribution for L=           1  read in
    real space projection operators read in
  non local Contribution for L=           1  read in
    real space projection operators read in
    PAW grid and wavefunctions read in

   number of l-projection  operators is LMAX  =           6
   number of lm-projection operators is LMMAX =          18

  PAW_PBE Te 08Apr2002                  :
 energy of atom  1       EATOM= -223.2721
 kinetic energy error for atom=    0.0004 (will be added to EATOM!!)
  PAW_PBE Pb_d 06Sep2000                :
 energy of atom  2       EATOM=-1661.6185
 kinetic energy error for atom=    0.0014 (will be added to EATOM!!)


 POSCAR: Te1 Pb1                                 
  positions in direct lattice
  No initial velocities read in
 exchange correlation table for  LEXCH =        8
   RHO(1)=    0.500       N(1)  =     2000
   RHO(2)=  100.500       N(2)  =     4000



--------------------------------------------------------------------------------------------------------


 ion  position               nearest neighbor table
   1  0.000  0.000  0.000-   2 3.29   2 3.29   2 3.29   2 3.29   2 3.29   2 3.29
   2  0.500  0.500  0.500-   1 3.29   1 3.29   1 3.29   1 3.29   1 3.29   1 3.29


IMPORTANT INFORMATION: All symmetrisations will be switched off!
NOSYMM: (Re-)initialisation of all symmetry stuff for point group C_1.



 KPOINTS: Non SCF run along symmetry lines        
  k-points in reciprocal lattice
Space group operators:
 irot       det(A)        alpha          n_x          n_y          n_z        tau_x        tau_y        tau_z
    1     1.000000     0.000001     1.000000     0.000000     0.000000     0.000000     0.000000     0.000000


--------------------------------------------------------------------------------------------------------




 Dimension of arrays:
   k-points           NKPTS =    200   k-points in BZ     NKDIM =    200   number of bands    NBANDS=     28
   number of dos      NEDOS =    301   number of ions     NIONS =      2
   non local maximal  LDIM  =      6   non local SUM 2l+1 LMDIM =     18
   total plane-waves  NPLWV =  64000
   max r-space proj   IRMAX =      1   max aug-charges    IRDMAX= 417933
   dimension x,y,z NGX =    40 NGY =   40 NGZ =   40
   dimension x,y,z NGXF=    80 NGYF=   80 NGZF=   80
   support grid    NGXF=   160 NGYF=  160 NGZF=  160
   ions per type =               1   1
   NGX,Y,Z   is equivalent  to a cutoff of  14.29, 14.29, 14.29 a.u.
   NGXF,Y,Z  is equivalent  to a cutoff of  28.58, 28.58, 28.58 a.u.

 SYSTEM =  PbTe                                    
 POSCAR =  Te1 Pb1                                 

 Startparameter for this run:
   NWRITE =      2    write-flag & timer
   PREC   = accura    normal or accurate (medium, high low for compatibility)
   ISTART =      0    job   : 0-new  1-cont  2-samecut
   ICHARG =     11    charge: 1-file 2-atom 10-const
   ISPIN  =      1    spin polarized calculation?
   LNONCOLLINEAR =      T non collinear calculations
   LSORBIT =      T    spin-orbit coupling
   INIWAV =      1    electr: 0-lowe 1-rand  2-diag
   LASPH  =      F    aspherical Exc in radial PAW
   METAGGA=      F    non-selfconsistent MetaGGA calc.

 Electronic Relaxation 1
   ENCUT  =  600.0 eV  44.10 Ry    6.64 a.u.   9.30  9.30  9.30*2*pi/ulx,y,z
   ENINI  =  600.0     initial cutoff
   ENAUG  =  391.9 eV  augmentation charge cutoff
   NELM   =     60;   NELMIN=  2; NELMDL=  0     # of ELM steps 
   EDIFF  = 0.1E-06   stopping-criterion for ELM
   LREAL  =      F    real-space projection
   NLSPLINE    = F    spline interpolate recip. space projectors
   LCOMPAT=      F    compatible to vasp.4.4
   GGA_COMPAT  = F    GGA compatible to vasp.4.4-vasp.4.6
   LMAXPAW     = -100 max onsite density
   LMAXMIX     =    4 max onsite mixed and CHGCAR
   VOSKOWN=      0    Vosko Wilk Nusair interpolation
   ROPT   =    0.00000   0.00000
 Ionic relaxation
   EDIFFG = -.1E-02   stopping-criterion for IOM
   NSW    =      0    number of steps for IOM
   NBLOCK =      1;   KBLOCK =      1    inner block; outer block 
   IBRION =     -1    ionic relax: 0-MD 1-quasi-New 2-CG
   NFREE  =      0    steps in history (QN), initial steepest desc. (CG)
   ISIF   =      2    stress and relaxation
   IWAVPR =     10    prediction:  0-non 1-charg 2-wave 3-comb
   ISYM   =     -1    0-nonsym 1-usesym 2-fastsym
   LCORR  =      T    Harris-Foulkes like correction to forces

   POTIM  = 0.5000    time-step for ionic-motion
   TEIN   =    0.0    initial temperature
   TEBEG  =    0.0;   TEEND  =   0.0 temperature during run
   SMASS  =  -3.00    Nose mass-parameter (am)
   estimated Nose-frequenzy (Omega)   =  0.10E-29 period in steps =****** mass=  -0.495E-27a.u.
   SCALEE = 1.0000    scale energy and forces
   NPACO  =    256;   APACO  = 16.0  distance and # of slots for P.C.
   PSTRESS=    0.0 pullay stress

  Mass of Ions in am
   POMASS = 127.60207.20
  Ionic Valenz
   ZVAL   =   6.00 14.00
  Atomic Wigner-Seitz radii
   RWIGS  =  -1.00 -1.00
  virtual crystal weights 
   VCA    =   1.00  1.00
   NELECT =      20.0000    total number of electrons
   NUPDOWN=      -1.0000    fix difference up-down

 DOS related values:
   EMIN   =  10.00;   EMAX   =-10.00  energy-range for DOS
   EFERMI =   0.00
   ISMEAR =     0;   SIGMA  =   0.01  broadening in eV -4-tet -1-fermi 0-gaus

 Electronic relaxation 2 (details)
   IALGO  =     58    algorithm
   LDIAG  =      T    sub-space diagonalisation (order eigenvalues)
   LSUBROT=      F    optimize rotation matrix (better conditioning)
   TURBO    =      0    0=normal 1=particle mesh
   IRESTART =      0    0=no restart 2=restart with 2 vectors
   NREBOOT  =      0    no. of reboots
   NMIN     =      0    reboot dimension
   EREF     =   0.00    reference energy to select bands
   IMIX   =      4    mixing-type and parameters
     AMIX     =   0.40;   BMIX     =  1.00
     AMIX_MAG =   1.60;   BMIX_MAG =  1.00
     AMIN     =   0.10
     WC   =   100.;   INIMIX=   1;  MIXPRE=   1;  MAXMIX= -45

 Intra band minimization:
   WEIMIN = 0.0000     energy-eigenvalue tresh-hold
   EBREAK =  0.89E-09  absolut break condition
   DEPER  =   0.30     relativ break condition  

   TIME   =   0.40     timestep for ELM

  volume/ion in A,a.u.               =      35.64       240.51
  Fermi-wavevector in a.u.,A,eV,Ry     =   1.071756  2.025326 15.628489  1.148662
  Thomas-Fermi vector in A             =   2.207506

 Write flags
   LWAVE        =      F    write WAVECAR
   LDOWNSAMPLE  =      F    k-point downsampling of WAVECAR
   LCHARG       =      F    write CHGCAR
   LVTOT        =      F    write LOCPOT, total local potential
   LVHAR        =      F    write LOCPOT, Hartree potential only
   LELF         =      F    write electronic localiz. function (ELF)
   LORBIT       =      0    0 simple, 1 ext, 2 COOP (PROOUT), +10 PAW based schemes


 Dipole corrections
   LMONO  =      F    monopole corrections only (constant potential shift)
   LDIPOL =      F    correct potential (dipole corrections)
   IDIPOL =      0    1-x, 2-y, 3-z, 4-all directions 
   EPSILON=  1.0000000 bulk dielectric constant

 Exchange correlation treatment:
   GGA     =    --    GGA type
   LEXCH   =     8    internal setting for exchange type
   VOSKOWN=      0    Vosko Wilk Nusair interpolation
   LHFCALC =     F    Hartree Fock is set to
   LHFONE  =     F    Hartree Fock one center treatment
   AEXX    =    0.0000 exact exchange contribution

 Linear response parameters
   LEPSILON=     F    determine dielectric tensor
   LRPA    =     F    only Hartree local field effects (RPA)
   LNABLA  =     F    use nabla operator in PAW spheres
   LVEL    =     F    velocity operator in full k-point grid
   LINTERFAST=   F  fast interpolation
   KINTER  =     0    interpolate to denser k-point grid
   CSHIFT  =0.1000    complex shift for real part using Kramers Kronig
   OMEGAMAX=  -1.0    maximum frequency
   DEG_THRESHOLD= 0.2000000E-02 threshold for treating states as degnerate
   RTIME   =   -0.100 relaxation time in fs
  (WPLASMAI=    0.000 imaginary part of plasma frequency in eV, 0.658/RTIME)
   DFIELD  = 0.0000000 0.0000000 0.0000000 field for delta impulse in time

 Orbital magnetization related:
   ORBITALMAG=     F  switch on orbital magnetization
   LCHIMAG   =     F  perturbation theory with respect to B field
   DQ        =  0.001000  dq finite difference perturbation B field
   LLRAUG    =     F  two centre corrections for induced B field



--------------------------------------------------------------------------------------------------------


 Static calculation
 charge density and potential remain constant during run
 non collinear spin polarized calculation
 Conjugate gradient for all bands (Freysoldt, et al. PRB 79, 241103 (2009))
 preconditioned conjugated gradient   charged. constant during bandupdate  
 perform sub-space diagonalisation
    before iterative eigenvector-optimisation
 no mixing
 using additional bands           18
 reciprocal scheme for non local part
 use partial core corrections
 calculate Harris-corrections to forces   (improved forces if not selfconsistent)
 use gradient corrections 
 WARNING: stress and forces are not correct
  (second derivative of E(xc) not defined)
 use of overlap-Matrix (Vanderbilt PP)
 Gauss-broadening in eV      SIGMA  =   0.01


--------------------------------------------------------------------------------------------------------


  energy-cutoff  :      600.00
  volume of cell :       71.28
      direct lattice vectors                 reciprocal lattice vectors
     0.000000000  3.290880610  3.290880610    -0.151935017  0.151935017  0.151935017
     3.290880610  0.000000000  3.290880610     0.151935017 -0.151935017  0.151935017
     3.290880610  3.290880610  0.000000000     0.151935017  0.151935017 -0.151935017

  length of vectors
     4.654007991  4.654007991  4.654007991     0.263159168  0.263159168  0.263159168



 k-points in units of 2pi/SCALE and weight: Non SCF run along symmetry lines        
   0.00000000  0.00000000  0.00000000       0.005
   0.00000000  0.00523914  0.00000000       0.005
   0.00000000  0.01047828  0.00000000       0.005
   0.00000000  0.01571742  0.00000000       0.005
   0.00000000  0.02095655  0.00000000       0.005
   0.00000000  0.02619569  0.00000000       0.005
   0.00000000  0.03143483  0.00000000       0.005
   0.00000000  0.03667397  0.00000000       0.005
   0.00000000  0.04191311  0.00000000       0.005
   0.00000000  0.04715225  0.00000000       0.005
   0.00000000  0.05239139  0.00000000       0.005
   0.00000000  0.05763052  0.00000000       0.005
   0.00000000  0.06286966  0.00000000       0.005
   0.00000000  0.06810880  0.00000000       0.005
   0.00000000  0.07334794  0.00000000       0.005
   0.00000000  0.07858708  0.00000000       0.005
   0.00000000  0.08382622  0.00000000       0.005
   0.00000000  0.08906535  0.00000000       0.005
   0.00000000  0.09430449  0.00000000       0.005
   0.00000000  0.09954363 -0.00000000       0.005
   0.00000000  0.10478277  0.00000000       0.005
   0.00000000  0.11002191 -0.00000000       0.005
   0.00000000  0.11526105  0.00000000       0.005
   0.00000000  0.12050019  0.00000000       0.005
   0.00000000  0.12573932  0.00000000       0.005
   0.00000000  0.13097846  0.00000000       0.005
   0.00000000  0.13621760  0.00000000       0.005
   0.00000000  0.14145674  0.00000000       0.005
   0.00000000  0.14669588  0.00000000       0.005
   0.00000000  0.15193502  0.00000000       0.005
   0.00000000  0.15193502  0.00000000       0.005
   0.00506450  0.15193502  0.00000000       0.005
   0.01012900  0.15193502  0.00000000       0.005
   0.01519350  0.15193502  0.00000000       0.005
   0.02025800  0.15193502  0.00000000       0.005
   0.02532250  0.15193502  0.00000000       0.005
   0.03038700  0.15193502  0.00000000       0.005
   0.03545150  0.15193502  0.00000000       0.005
   0.04051600  0.15193502 -0.00000000       0.005
   0.04558050  0.15193502  0.00000000       0.005
   0.05064501  0.15193502  0.00000000       0.005
   0.05570951  0.15193502  0.00000000       0.005
   0.06077401  0.15193502 -0.00000000       0.005
   0.06583851  0.15193502  0.00000000       0.005
   0.07090301  0.15193502  0.00000000       0.005
   0.07596751  0.15193502  0.00000000       0.005
   0.07596751  0.15193502  0.00000000       0.005
   0.07942058  0.14848195  0.00000000       0.005
   0.08287365  0.14502888 -0.00000000       0.005
   0.08632671  0.14157581 -0.00000000       0.005
   0.08977978  0.13812274 -0.00000000       0.005
   0.09323285  0.13466967 -0.00000000       0.005
   0.09668592  0.13121661  0.00000000       0.005
   0.10013899  0.12776354 -0.00000000       0.005
   0.10359206  0.12431047  0.00000000       0.005
   0.10704513  0.12085740 -0.00000000       0.005
   0.11049819  0.11740433 -0.00000000       0.005
   0.11395126  0.11395126 -0.00000000       0.005
   0.11395126  0.11395126 -0.00000000       0.005
   0.11027542  0.11027542 -0.00000000       0.005
   0.10659957  0.10659957  0.00000000       0.005
   0.10292372  0.10292372 -0.00000000       0.005
   0.09924787  0.09924787 -0.00000000       0.005
   0.09557203  0.09557203  0.00000000       0.005
   0.09189618  0.09189618 -0.00000000       0.005
   0.08822033  0.08822033  0.00000000       0.005
   0.08454449  0.08454449  0.00000000       0.005
   0.08086864  0.08086864  0.00000000       0.005
   0.07719279  0.07719279 -0.00000000       0.005
   0.07351694  0.07351694  0.00000000       0.005
   0.06984110  0.06984110 -0.00000000       0.005
   0.06616525  0.06616525  0.00000000       0.005
   0.06248940  0.06248940  0.00000000       0.005
   0.05881355  0.05881355 -0.00000000       0.005
   0.05513771  0.05513771  0.00000000       0.005
   0.05146186  0.05146186  0.00000000       0.005
   0.04778601  0.04778601  0.00000000       0.005
   0.04411017  0.04411017  0.00000000       0.005
   0.04043432  0.04043432  0.00000000       0.005
   0.03675847  0.03675847  0.00000000       0.005
   0.03308262  0.03308262  0.00000000       0.005
   0.02940678  0.02940678 -0.00000000       0.005
   0.02573093  0.02573093  0.00000000       0.005
   0.02205508  0.02205508  0.00000000       0.005
   0.01837924  0.01837924  0.00000000       0.005
   0.01470339  0.01470339  0.00000000       0.005
   0.01102754  0.01102754  0.00000000       0.005
   0.00735169  0.00735169  0.00000000       0.005
   0.00367585  0.00367585  0.00000000       0.005
   0.00000000  0.00000000  0.00000000       0.005
   0.00000000  0.00000000  0.00000000       0.005
   0.00303870  0.00303870  0.00303870       0.005
   0.00607740  0.00607740  0.00607740       0.005
   0.00911610  0.00911610  0.00911610       0.005
   0.01215480  0.01215480  0.01215480       0.005
   0.01519350  0.01519350  0.01519350       0.005
   0.01823220  0.01823220  0.01823220       0.005
   0.02127090  0.02127090  0.02127090       0.005
   0.02430960  0.02430960  0.02430960       0.005
   0.02734830  0.02734830  0.02734830       0.005
   0.03038700  0.03038700  0.03038700       0.005
   0.03342570  0.03342570  0.03342570       0.005
   0.03646440  0.03646440  0.03646440       0.005
   0.03950310  0.03950310  0.03950310       0.005
   0.04254180  0.04254180  0.04254180       0.005
   0.04558050  0.04558050  0.04558050       0.005
   0.04861921  0.04861921  0.04861921       0.005
   0.05165791  0.05165791  0.05165791       0.005
   0.05469661  0.05469661  0.05469661       0.005
   0.05773531  0.05773531  0.05773531       0.005
   0.06077401  0.06077401  0.06077401       0.005
   0.06381271  0.06381271  0.06381271       0.005
   0.06685141  0.06685141  0.06685141       0.005
   0.06989011  0.06989011  0.06989011       0.005
   0.07292881  0.07292881  0.07292881       0.005
   0.07596751  0.07596751  0.07596751       0.005
   0.07596751  0.07596751  0.07596751       0.005
   0.07385730  0.08018793  0.07385730       0.005
   0.07174709  0.08440834  0.07174709       0.005
   0.06963688  0.08862876  0.06963688       0.005
   0.06752667  0.09284918  0.06752667       0.005
   0.06541647  0.09706959  0.06541647       0.005
   0.06330626  0.10129001  0.06330626       0.005
   0.06119605  0.10551043  0.06119605       0.005
   0.05908584  0.10973085  0.05908584       0.005
   0.05697563  0.11395126  0.05697563       0.005
   0.05486542  0.11817168  0.05486542       0.005
   0.05275521  0.12239210  0.05275521       0.005
   0.05064501  0.12661251  0.05064501       0.005
   0.04853480  0.13083293  0.04853480       0.005
   0.04642459  0.13505335  0.04642459       0.005
   0.04431438  0.13927377  0.04431438       0.005
   0.04220417  0.14349418  0.04220417       0.005
   0.04009396  0.14771460  0.04009396       0.005
   0.03798375  0.15193502  0.03798375       0.005
   0.03798375  0.15193502  0.03798375       0.005
   0.04143682  0.15193502  0.03453069       0.005
   0.04488989  0.15193502  0.03107762       0.005
   0.04834296  0.15193502  0.02762455       0.005
   0.05179603  0.15193502  0.02417148       0.005
   0.05524910  0.15193502  0.02071841       0.005
   0.05870217  0.15193502  0.01726534       0.005
   0.06215523  0.15193502  0.01381227       0.005
   0.06560830  0.15193502  0.01035921       0.005
   0.06906137  0.15193502  0.00690614       0.005
   0.07251444  0.15193502  0.00345307       0.005
   0.07596751  0.15193502  0.00000000       0.005
   0.07596751  0.15193502  0.00000000       0.005
   0.07596751  0.14831752  0.00361750       0.005
   0.07596751  0.14470002  0.00723500       0.005
   0.07596751  0.14108252  0.01085250       0.005
   0.07596751  0.13746501  0.01447000       0.005
   0.07596751  0.13384751  0.01808750       0.005
   0.07596751  0.13023001  0.02170500       0.005
   0.07596751  0.12661251  0.02532250       0.005
   0.07596751  0.12299501  0.02894000       0.005
   0.07596751  0.11937751  0.03255750       0.005
   0.07596751  0.11576001  0.03617500       0.005
   0.07596751  0.11214251  0.03979250       0.005
   0.07596751  0.10852501  0.04341000       0.005
   0.07596751  0.10490751  0.04702751       0.005
   0.07596751  0.10129001  0.05064501       0.005
   0.07596751  0.09767251  0.05426251       0.005
   0.07596751  0.09405501  0.05788001       0.005
   0.07596751  0.09043751  0.06149751       0.005
   0.07596751  0.08682001  0.06511501       0.005
   0.07596751  0.08320251  0.06873251       0.005
   0.07596751  0.07958501  0.07235001       0.005
   0.07596751  0.07596751  0.07596751       0.005
   0.07596751  0.07596751  0.07596751       0.005
   0.07807772  0.07807772  0.07174709       0.005
   0.08018793  0.08018793  0.06752667       0.005
   0.08229813  0.08229813  0.06330626       0.005
   0.08440834  0.08440834  0.05908584       0.005
   0.08651855  0.08651855  0.05486542       0.005
   0.08862876  0.08862876  0.05064501       0.005
   0.09073897  0.09073897  0.04642459       0.005
   0.09284918  0.09284918  0.04220417       0.005
   0.09495939  0.09495939  0.03798375       0.005
   0.09706959  0.09706959  0.03376334       0.005
   0.09917980  0.09917980  0.02954292       0.005
   0.10129001  0.10129001  0.02532250       0.005
   0.10340022  0.10340022  0.02110209       0.005
   0.10551043  0.10551043  0.01688167       0.005
   0.10762064  0.10762064  0.01266125       0.005
   0.10973085  0.10973085  0.00844083       0.005
   0.11184105  0.11184105  0.00422042       0.005
   0.11395126  0.11395126 -0.00000000       0.005
   0.03798375  0.15193502  0.03798375       0.005
   0.03453069  0.15193502  0.03453069       0.005
   0.03107762  0.15193502  0.03107762       0.005
   0.02762455  0.15193502  0.02762455       0.005
   0.02417148  0.15193502  0.02417148       0.005
   0.02071841  0.15193502  0.02071841       0.005
   0.01726534  0.15193502  0.01726534       0.005
   0.01381227  0.15193502  0.01381227       0.005
   0.01035921  0.15193502  0.01035921       0.005
   0.00690614  0.15193502  0.00690614       0.005
   0.00345307  0.15193502  0.00345307       0.005
   0.00000000  0.15193502  0.00000000       0.005

 k-points in reciprocal lattice and weights: Non SCF run along symmetry lines        
   0.00000000  0.00000000  0.00000000       0.005
   0.01724138  0.00000000  0.01724138       0.005
   0.03448276  0.00000000  0.03448276       0.005
   0.05172414  0.00000000  0.05172414       0.005
   0.06896552  0.00000000  0.06896552       0.005
   0.08620690  0.00000000  0.08620690       0.005
   0.10344828  0.00000000  0.10344828       0.005
   0.12068966  0.00000000  0.12068966       0.005
   0.13793103  0.00000000  0.13793103       0.005
   0.15517241 -0.00000000  0.15517241       0.005
   0.17241379  0.00000000  0.17241379       0.005
   0.18965517  0.00000000  0.18965517       0.005
   0.20689655  0.00000000  0.20689655       0.005
   0.22413793  0.00000000  0.22413793       0.005
   0.24137931  0.00000000  0.24137931       0.005
   0.25862069  0.00000000  0.25862069       0.005
   0.27586207  0.00000000  0.27586207       0.005
   0.29310345  0.00000000  0.29310345       0.005
   0.31034483 -0.00000000  0.31034483       0.005
   0.32758621  0.00000000  0.32758621       0.005
   0.34482759  0.00000000  0.34482759       0.005
   0.36206897  0.00000000  0.36206897       0.005
   0.37931034  0.00000000  0.37931034       0.005
   0.39655172  0.00000000  0.39655172       0.005
   0.41379310  0.00000000  0.41379310       0.005
   0.43103448  0.00000000  0.43103448       0.005
   0.44827586  0.00000000  0.44827586       0.005
   0.46551724  0.00000000  0.46551724       0.005
   0.48275862  0.00000000  0.48275862       0.005
   0.50000000  0.00000000  0.50000000       0.005
   0.50000000  0.00000000  0.50000000       0.005
   0.50000000  0.01666667  0.51666667       0.005
   0.50000000  0.03333333  0.53333333       0.005
   0.50000000  0.05000000  0.55000000       0.005
   0.50000000  0.06666667  0.56666667       0.005
   0.50000000  0.08333333  0.58333333       0.005
   0.50000000  0.10000000  0.60000000       0.005
   0.50000000  0.11666667  0.61666667       0.005
   0.50000000  0.13333333  0.63333333       0.005
   0.50000000  0.15000000  0.65000000       0.005
   0.50000000  0.16666667  0.66666667       0.005
   0.50000000  0.18333333  0.68333333       0.005
   0.50000000  0.20000000  0.70000000       0.005
   0.50000000  0.21666667  0.71666667       0.005
   0.50000000  0.23333333  0.73333333       0.005
   0.50000000  0.25000000  0.75000000       0.005
   0.50000000  0.25000000  0.75000000       0.005
   0.48863636  0.26136364  0.75000000       0.005
   0.47727273  0.27272727  0.75000000       0.005
   0.46590909  0.28409091  0.75000000       0.005
   0.45454545  0.29545455  0.75000000       0.005
   0.44318182  0.30681818  0.75000000       0.005
   0.43181818  0.31818182  0.75000000       0.005
   0.42045455  0.32954545  0.75000000       0.005
   0.40909091  0.34090909  0.75000000       0.005
   0.39772727  0.35227273  0.75000000       0.005
   0.38636364  0.36363636  0.75000000       0.005
   0.37500000  0.37500000  0.75000000       0.005
   0.37500000  0.37500000  0.75000000       0.005
   0.36290323  0.36290323  0.72580645       0.005
   0.35080645  0.35080645  0.70161290       0.005
   0.33870968  0.33870968  0.67741935       0.005
   0.32661290  0.32661290  0.65322581       0.005
   0.31451613  0.31451613  0.62903226       0.005
   0.30241935  0.30241935  0.60483871       0.005
   0.29032258  0.29032258  0.58064516       0.005
   0.27822581  0.27822581  0.55645161       0.005
   0.26612903  0.26612903  0.53225806       0.005
   0.25403226  0.25403226  0.50806452       0.005
   0.24193548  0.24193548  0.48387097       0.005
   0.22983871  0.22983871  0.45967742       0.005
   0.21774194  0.21774194  0.43548387       0.005
   0.20564516  0.20564516  0.41129032       0.005
   0.19354839  0.19354839  0.38709677       0.005
   0.18145161  0.18145161  0.36290323       0.005
   0.16935484  0.16935484  0.33870968       0.005
   0.15725806  0.15725806  0.31451613       0.005
   0.14516129  0.14516129  0.29032258       0.005
   0.13306452  0.13306452  0.26612903       0.005
   0.12096774  0.12096774  0.24193548       0.005
   0.10887097  0.10887097  0.21774194       0.005
   0.09677419  0.09677419  0.19354839       0.005
   0.08467742  0.08467742  0.16935484       0.005
   0.07258065  0.07258065  0.14516129       0.005
   0.06048387  0.06048387  0.12096774       0.005
   0.04838710  0.04838710  0.09677419       0.005
   0.03629032  0.03629032  0.07258065       0.005
   0.02419355  0.02419355  0.04838710       0.005
   0.01209677  0.01209677  0.02419355       0.005
   0.00000000  0.00000000  0.00000000       0.005
   0.00000000  0.00000000  0.00000000       0.005
   0.02000000  0.02000000  0.02000000       0.005
   0.04000000  0.04000000  0.04000000       0.005
   0.06000000  0.06000000  0.06000000       0.005
   0.08000000  0.08000000  0.08000000       0.005
   0.10000000  0.10000000  0.10000000       0.005
   0.12000000  0.12000000  0.12000000       0.005
   0.14000000  0.14000000  0.14000000       0.005
   0.16000000  0.16000000  0.16000000       0.005
   0.18000000  0.18000000  0.18000000       0.005
   0.20000000  0.20000000  0.20000000       0.005
   0.22000000  0.22000000  0.22000000       0.005
   0.24000000  0.24000000  0.24000000       0.005
   0.26000000  0.26000000  0.26000000       0.005
   0.28000000  0.28000000  0.28000000       0.005
   0.30000000  0.30000000  0.30000000       0.005
   0.32000000  0.32000000  0.32000000       0.005
   0.34000000  0.34000000  0.34000000       0.005
   0.36000000  0.36000000  0.36000000       0.005
   0.38000000  0.38000000  0.38000000       0.005
   0.40000000  0.40000000  0.40000000       0.005
   0.42000000  0.42000000  0.42000000       0.005
   0.44000000  0.44000000  0.44000000       0.005
   0.46000000  0.46000000  0.46000000       0.005
   0.48000000  0.48000000  0.48000000       0.005
   0.50000000  0.50000000  0.50000000       0.005
   0.50000000  0.50000000  0.50000000       0.005
   0.50694444  0.48611111  0.50694444       0.005
   0.51388889  0.47222222  0.51388889       0.005
   0.52083333  0.45833333  0.52083333       0.005
   0.52777778  0.44444444  0.52777778       0.005
   0.53472222  0.43055556  0.53472222       0.005
   0.54166667  0.41666667  0.54166667       0.005
   0.54861111  0.40277778  0.54861111       0.005
   0.55555556  0.38888889  0.55555556       0.005
   0.56250000  0.37500000  0.56250000       0.005
   0.56944444  0.36111111  0.56944444       0.005
   0.57638889  0.34722222  0.57638889       0.005
   0.58333333  0.33333333  0.58333333       0.005
   0.59027778  0.31944444  0.59027778       0.005
   0.59722222  0.30555556  0.59722222       0.005
   0.60416667  0.29166667  0.60416667       0.005
   0.61111111  0.27777778  0.61111111       0.005
   0.61805556  0.26388889  0.61805556       0.005
   0.62500000  0.25000000  0.62500000       0.005
   0.62500000  0.25000000  0.62500000       0.005
   0.61363636  0.25000000  0.63636364       0.005
   0.60227273  0.25000000  0.64772727       0.005
   0.59090909  0.25000000  0.65909091       0.005
   0.57954545  0.25000000  0.67045455       0.005
   0.56818182  0.25000000  0.68181818       0.005
   0.55681818  0.25000000  0.69318182       0.005
   0.54545455  0.25000000  0.70454545       0.005
   0.53409091  0.25000000  0.71590909       0.005
   0.52272727  0.25000000  0.72727273       0.005
   0.51136364  0.25000000  0.73863636       0.005
   0.50000000  0.25000000  0.75000000       0.005
   0.50000000  0.25000000  0.75000000       0.005
   0.50000000  0.26190476  0.73809524       0.005
   0.50000000  0.27380952  0.72619048       0.005
   0.50000000  0.28571429  0.71428571       0.005
   0.50000000  0.29761905  0.70238095       0.005
   0.50000000  0.30952381  0.69047619       0.005
   0.50000000  0.32142857  0.67857143       0.005
   0.50000000  0.33333333  0.66666667       0.005
   0.50000000  0.34523810  0.65476190       0.005
   0.50000000  0.35714286  0.64285714       0.005
   0.50000000  0.36904762  0.63095238       0.005
   0.50000000  0.38095238  0.61904762       0.005
   0.50000000  0.39285714  0.60714286       0.005
   0.50000000  0.40476190  0.59523810       0.005
   0.50000000  0.41666667  0.58333333       0.005
   0.50000000  0.42857143  0.57142857       0.005
   0.50000000  0.44047619  0.55952381       0.005
   0.50000000  0.45238095  0.54761905       0.005
   0.50000000  0.46428571  0.53571429       0.005
   0.50000000  0.47619048  0.52380952       0.005
   0.50000000  0.48809524  0.51190476       0.005
   0.50000000  0.50000000  0.50000000       0.005
   0.50000000  0.50000000  0.50000000       0.005
   0.49305556  0.49305556  0.51388889       0.005
   0.48611111  0.48611111  0.52777778       0.005
   0.47916667  0.47916667  0.54166667       0.005
   0.47222222  0.47222222  0.55555556       0.005
   0.46527778  0.46527778  0.56944444       0.005
   0.45833333  0.45833333  0.58333333       0.005
   0.45138889  0.45138889  0.59722222       0.005
   0.44444444  0.44444444  0.61111111       0.005
   0.43750000  0.43750000  0.62500000       0.005
   0.43055556  0.43055556  0.63888889       0.005
   0.42361111  0.42361111  0.65277778       0.005
   0.41666667  0.41666667  0.66666667       0.005
   0.40972222  0.40972222  0.68055556       0.005
   0.40277778  0.40277778  0.69444444       0.005
   0.39583333  0.39583333  0.70833333       0.005
   0.38888889  0.38888889  0.72222222       0.005
   0.38194444  0.38194444  0.73611111       0.005
   0.37500000  0.37500000  0.75000000       0.005
   0.62500000  0.25000000  0.62500000       0.005
   0.61363636  0.22727273  0.61363636       0.005
   0.60227273  0.20454545  0.60227273       0.005
   0.59090909  0.18181818  0.59090909       0.005
   0.57954545  0.15909091  0.57954545       0.005
   0.56818182  0.13636364  0.56818182       0.005
   0.55681818  0.11363636  0.55681818       0.005
   0.54545455  0.09090909  0.54545455       0.005
   0.53409091  0.06818182  0.53409091       0.005
   0.52272727  0.04545455  0.52272727       0.005
   0.51136364  0.02272727  0.51136364       0.005
   0.50000000  0.00000000  0.50000000       0.005

 position of ions in fractional coordinates (direct lattice) 
   0.00000000  0.00000000  0.00000000
   0.50000000  0.50000000  0.50000000

 position of ions in cartesian coordinates  (Angst):
   0.00000000  0.00000000  0.00000000
   3.29088061  3.29088061  3.29088061

 Euler angles ALPHA=     0.0000000  BETA=     0.0000000

 transformation matrix from SAXIS to cartesian coordinates
 ---------------------------------------------------------
     1.0000000 m_x    -0.0000000 m_y     0.0000000 m_z
     0.0000000 m_x     1.0000000 m_y     0.0000000 m_z
    -0.0000000 m_x     0.0000000 m_y     1.0000000 m_z

 transformation matrix from cartesian coordinates to SAXIS
 ---------------------------------------------------------
     1.0000000 m_x     0.0000000 m_y    -0.0000000 m_z
    -0.0000000 m_x     1.0000000 m_y     0.0000000 m_z
     0.0000000 m_x     0.0000000 m_y     1.0000000 m_z




--------------------------------------------------------------------------------------------------------


 k-point  1 :   0.0000 0.0000 0.0000  plane waves:    4842
 k-point  2 :   0.0172 0.0000 0.0172  plane waves:    4842
 k-point  3 :   0.0345 0.0000 0.0345  plane waves:    4818
 k-point  4 :   0.0517 0.0000 0.0517  plane waves:    4770
 k-point  5 :   0.0690 0.0000 0.0690  plane waves:    4762
 k-point  6 :   0.0862 0.0000 0.0862  plane waves:    4762
 k-point  7 :   0.1034 0.0000 0.1034  plane waves:    4746
 k-point  8 :   0.1207 0.0000 0.1207  plane waves:    4746
 k-point  9 :   0.1379 0.0000 0.1379  plane waves:    4746
 k-point 10 :   0.1552-0.0000 0.1552  plane waves:    4746
 k-point 11 :   0.1724 0.0000 0.1724  plane waves:    4746
 k-point 12 :   0.1897 0.0000 0.1897  plane waves:    4754
 k-point 13 :   0.2069 0.0000 0.2069  plane waves:    4754
 k-point 14 :   0.2241 0.0000 0.2241  plane waves:    4762
 k-point 15 :   0.2414 0.0000 0.2414  plane waves:    4826
 k-point 16 :   0.2586 0.0000 0.2586  plane waves:    4826
 k-point 17 :   0.2759 0.0000 0.2759  plane waves:    4778
 k-point 18 :   0.2931 0.0000 0.2931  plane waves:    4786
 k-point 19 :   0.3103-0.0000 0.3103  plane waves:    4786
 k-point 20 :   0.3276 0.0000 0.3276  plane waves:    4794
 k-point 21 :   0.3448 0.0000 0.3448  plane waves:    4762
 k-point 22 :   0.3621 0.0000 0.3621  plane waves:    4754
 k-point 23 :   0.3793 0.0000 0.3793  plane waves:    4754
 k-point 24 :   0.3966 0.0000 0.3966  plane waves:    4738
 k-point 25 :   0.4138 0.0000 0.4138  plane waves:    4754
 k-point 26 :   0.4310 0.0000 0.4310  plane waves:    4748
 k-point 27 :   0.4483 0.0000 0.4483  plane waves:    4764
 k-point 28 :   0.4655 0.0000 0.4655  plane waves:    4764
 k-point 29 :   0.4828 0.0000 0.4828  plane waves:    4748
 k-point 30 :   0.5000 0.0000 0.5000  plane waves:    4692
 k-point 31 :   0.5000 0.0000 0.5000  plane waves:    4692
 k-point 32 :   0.5000 0.0167 0.5167  plane waves:    4732
 k-point 33 :   0.5000 0.0333 0.5333  plane waves:    4760
 k-point 34 :   0.5000 0.0500 0.5500  plane waves:    4776
 k-point 35 :   0.5000 0.0667 0.5667  plane waves:    4776
 k-point 36 :   0.5000 0.0833 0.5833  plane waves:    4756
 k-point 37 :   0.5000 0.1000 0.6000  plane waves:    4752
 k-point 38 :   0.5000 0.1167 0.6167  plane waves:    4756
 k-point 39 :   0.5000 0.1333 0.6333  plane waves:    4756
 k-point 40 :   0.5000 0.1500 0.6500  plane waves:    4756
 k-point 41 :   0.5000 0.1667 0.6667  plane waves:    4748
 k-point 42 :   0.5000 0.1833 0.6833  plane waves:    4764
 k-point 43 :   0.5000 0.2000 0.7000  plane waves:    4732
 k-point 44 :   0.5000 0.2167 0.7167  plane waves:    4744
 k-point 45 :   0.5000 0.2333 0.7333  plane waves:    4736
 k-point 46 :   0.5000 0.2500 0.7500  plane waves:    4704
 k-point 47 :   0.5000 0.2500 0.7500  plane waves:    4704
 k-point 48 :   0.4886 0.2614 0.7500  plane waves:    4728
 k-point 49 :   0.4773 0.2727 0.7500  plane waves:    4736
 k-point 50 :   0.4659 0.2841 0.7500  plane waves:    4734
 k-point 51 :   0.4545 0.2955 0.7500  plane waves:    4750
 k-point 52 :   0.4432 0.3068 0.7500  plane waves:    4746
 k-point 53 :   0.4318 0.3182 0.7500  plane waves:    4740
 k-point 54 :   0.4205 0.3295 0.7500  plane waves:    4728
 k-point 55 :   0.4091 0.3409 0.7500  plane waves:    4728
 k-point 56 :   0.3977 0.3523 0.7500  plane waves:    4732
 k-point 57 :   0.3864 0.3636 0.7500  plane waves:    4732
 k-point 58 :   0.3750 0.3750 0.7500  plane waves:    4728
 k-point 59 :   0.3750 0.3750 0.7500  plane waves:    4728
 k-point 60 :   0.3629 0.3629 0.7258  plane waves:    4724
 k-point 61 :   0.3508 0.3508 0.7016  plane waves:    4738
 k-point 62 :   0.3387 0.3387 0.6774  plane waves:    4746
 k-point 63 :   0.3266 0.3266 0.6532  plane waves:    4726
 k-point 64 :   0.3145 0.3145 0.6290  plane waves:    4718
 k-point 65 :   0.3024 0.3024 0.6048  plane waves:    4738
 k-point 66 :   0.2903 0.2903 0.5806  plane waves:    4730
 k-point 67 :   0.2782 0.2782 0.5565  plane waves:    4738
 k-point 68 :   0.2661 0.2661 0.5323  plane waves:    4754
 k-point 69 :   0.2540 0.2540 0.5081  plane waves:    4770
 k-point 70 :   0.2419 0.2419 0.4839  plane waves:    4770
 k-point 71 :   0.2298 0.2298 0.4597  plane waves:    4778
 k-point 72 :   0.2177 0.2177 0.4355  plane waves:    4770
 k-point 73 :   0.2056 0.2056 0.4113  plane waves:    4778
 k-point 74 :   0.1935 0.1935 0.3871  plane waves:    4770
 k-point 75 :   0.1815 0.1815 0.3629  plane waves:    4782
 k-point 76 :   0.1694 0.1694 0.3387  plane waves:    4782
 k-point 77 :   0.1573 0.1573 0.3145  plane waves:    4758
 k-point 78 :   0.1452 0.1452 0.2903  plane waves:    4758
 k-point 79 :   0.1331 0.1331 0.2661  plane waves:    4782
 k-point 80 :   0.1210 0.1210 0.2419  plane waves:    4766
 k-point 81 :   0.1089 0.1089 0.2177  plane waves:    4758
 k-point 82 :   0.0968 0.0968 0.1935  plane waves:    4734
 k-point 83 :   0.0847 0.0847 0.1694  plane waves:    4726
 k-point 84 :   0.0726 0.0726 0.1452  plane waves:    4750
 k-point 85 :   0.0605 0.0605 0.1210  plane waves:    4758
 k-point 86 :   0.0484 0.0484 0.0968  plane waves:    4766
 k-point 87 :   0.0363 0.0363 0.0726  plane waves:    4802
 k-point 88 :   0.0242 0.0242 0.0484  plane waves:    4830
 k-point 89 :   0.0121 0.0121 0.0242  plane waves:    4842
 k-point 90 :   0.0000 0.0000 0.0000  plane waves:    4842
 k-point 91 :   0.0000 0.0000 0.0000  plane waves:    4842
 k-point 92 :   0.0200 0.0200 0.0200  plane waves:    4836
 k-point 93 :   0.0400 0.0400 0.0400  plane waves:    4824
 k-point 94 :   0.0600 0.0600 0.0600  plane waves:    4776
 k-point 95 :   0.0800 0.0800 0.0800  plane waves:    4764
 k-point 96 :   0.1000 0.1000 0.1000  plane waves:    4752
 k-point 97 :   0.1200 0.1200 0.1200  plane waves:    4740
 k-point 98 :   0.1400 0.1400 0.1400  plane waves:    4758
 k-point 99 :   0.1600 0.1600 0.1600  plane waves:    4758
 k-point ** :   0.1800 0.1800 0.1800  plane waves:    4752
 k-point ** :   0.2000 0.2000 0.2000  plane waves:    4758
 k-point ** :   0.2200 0.2200 0.2200  plane waves:    4794
 k-point ** :   0.2400 0.2400 0.2400  plane waves:    4770
 k-point ** :   0.2600 0.2600 0.2600  plane waves:    4764
 k-point ** :   0.2800 0.2800 0.2800  plane waves:    4752
 k-point ** :   0.3000 0.3000 0.3000  plane waves:    4770
 k-point ** :   0.3200 0.3200 0.3200  plane waves:    4764
 k-point ** :   0.3400 0.3400 0.3400  plane waves:    4764
 k-point ** :   0.3600 0.3600 0.3600  plane waves:    4764
 k-point ** :   0.3800 0.3800 0.3800  plane waves:    4800
 k-point ** :   0.4000 0.4000 0.4000  plane waves:    4794
 k-point ** :   0.4200 0.4200 0.4200  plane waves:    4766
 k-point ** :   0.4400 0.4400 0.4400  plane waves:    4766
 k-point ** :   0.4600 0.4600 0.4600  plane waves:    4754
 k-point ** :   0.4800 0.4800 0.4800  plane waves:    4754
 k-point ** :   0.5000 0.5000 0.5000  plane waves:    4784
 k-point ** :   0.5000 0.5000 0.5000  plane waves:    4784
 k-point ** :   0.5069 0.4861 0.5069  plane waves:    4754
 k-point ** :   0.5139 0.4722 0.5139  plane waves:    4754
 k-point ** :   0.5208 0.4583 0.5208  plane waves:    4768
 k-point ** :   0.5278 0.4444 0.5278  plane waves:    4772
 k-point ** :   0.5347 0.4306 0.5347  plane waves:    4756
 k-point ** :   0.5417 0.4167 0.5417  plane waves:    4768
 k-point ** :   0.5486 0.4028 0.5486  plane waves:    4752
 k-point ** :   0.5556 0.3889 0.5556  plane waves:    4746
 k-point ** :   0.5625 0.3750 0.5625  plane waves:    4738
 k-point ** :   0.5694 0.3611 0.5694  plane waves:    4756
 k-point ** :   0.5764 0.3472 0.5764  plane waves:    4752
 k-point ** :   0.5833 0.3333 0.5833  plane waves:    4740
 k-point ** :   0.5903 0.3194 0.5903  plane waves:    4740
 k-point ** :   0.5972 0.3056 0.5972  plane waves:    4740
 k-point ** :   0.6042 0.2917 0.6042  plane waves:    4746
 k-point ** :   0.6111 0.2778 0.6111  plane waves:    4732
 k-point ** :   0.6181 0.2639 0.6181  plane waves:    4724
 k-point ** :   0.6250 0.2500 0.6250  plane waves:    4728
 k-point ** :   0.6250 0.2500 0.6250  plane waves:    4728
 k-point ** :   0.6136 0.2500 0.6364  plane waves:    4732
 k-point ** :   0.6023 0.2500 0.6477  plane waves:    4732
 k-point ** :   0.5909 0.2500 0.6591  plane waves:    4728
 k-point ** :   0.5795 0.2500 0.6705  plane waves:    4728
 k-point ** :   0.5682 0.2500 0.6818  plane waves:    4740
 k-point ** :   0.5568 0.2500 0.6932  plane waves:    4746
 k-point ** :   0.5455 0.2500 0.7045  plane waves:    4750
 k-point ** :   0.5341 0.2500 0.7159  plane waves:    4734
 k-point ** :   0.5227 0.2500 0.7273  plane waves:    4736
 k-point ** :   0.5114 0.2500 0.7386  plane waves:    4728
 k-point ** :   0.5000 0.2500 0.7500  plane waves:    4704
 k-point ** :   0.5000 0.2500 0.7500  plane waves:    4704
 k-point ** :   0.5000 0.2619 0.7381  plane waves:    4724
 k-point ** :   0.5000 0.2738 0.7262  plane waves:    4736
 k-point ** :   0.5000 0.2857 0.7143  plane waves:    4728
 k-point ** :   0.5000 0.2976 0.7024  plane waves:    4756
 k-point ** :   0.5000 0.3095 0.6905  plane waves:    4752
 k-point ** :   0.5000 0.3214 0.6786  plane waves:    4752
 k-point ** :   0.5000 0.3333 0.6667  plane waves:    4752
 k-point ** :   0.5000 0.3452 0.6548  plane waves:    4756
 k-point ** :   0.5000 0.3571 0.6429  plane waves:    4760
 k-point ** :   0.5000 0.3690 0.6310  plane waves:    4768
 k-point ** :   0.5000 0.3810 0.6190  plane waves:    4768
 k-point ** :   0.5000 0.3929 0.6071  plane waves:    4760
 k-point ** :   0.5000 0.4048 0.5952  plane waves:    4764
 k-point ** :   0.5000 0.4167 0.5833  plane waves:    4740
 k-point ** :   0.5000 0.4286 0.5714  plane waves:    4764
 k-point ** :   0.5000 0.4405 0.5595  plane waves:    4764
 k-point ** :   0.5000 0.4524 0.5476  plane waves:    4764
 k-point ** :   0.5000 0.4643 0.5357  plane waves:    4764
 k-point ** :   0.5000 0.4762 0.5238  plane waves:    4756
 k-point ** :   0.5000 0.4881 0.5119  plane waves:    4756
 k-point ** :   0.5000 0.5000 0.5000  plane waves:    4784
 k-point ** :   0.5000 0.5000 0.5000  plane waves:    4784
 k-point ** :   0.4931 0.4931 0.5139  plane waves:    4754
 k-point ** :   0.4861 0.4861 0.5278  plane waves:    4754
 k-point ** :   0.4792 0.4792 0.5417  plane waves:    4768
 k-point ** :   0.4722 0.4722 0.5556  plane waves:    4772
 k-point ** :   0.4653 0.4653 0.5694  plane waves:    4756
 k-point ** :   0.4583 0.4583 0.5833  plane waves:    4768
 k-point ** :   0.4514 0.4514 0.5972  plane waves:    4752
 k-point ** :   0.4444 0.4444 0.6111  plane waves:    4746
 k-point ** :   0.4375 0.4375 0.6250  plane waves:    4738
 k-point ** :   0.4306 0.4306 0.6389  plane waves:    4756
 k-point ** :   0.4236 0.4236 0.6528  plane waves:    4752
 k-point ** :   0.4167 0.4167 0.6667  plane waves:    4740
 k-point ** :   0.4097 0.4097 0.6806  plane waves:    4740
 k-point ** :   0.4028 0.4028 0.6944  plane waves:    4740
 k-point ** :   0.3958 0.3958 0.7083  plane waves:    4746
 k-point ** :   0.3889 0.3889 0.7222  plane waves:    4732
 k-point ** :   0.3819 0.3819 0.7361  plane waves:    4724
 k-point ** :   0.3750 0.3750 0.7500  plane waves:    4728
 k-point ** :   0.6250 0.2500 0.6250  plane waves:    4728
 k-point ** :   0.6136 0.2273 0.6136  plane waves:    4736
 k-point ** :   0.6023 0.2045 0.6023  plane waves:    4760
 k-point ** :   0.5909 0.1818 0.5909  plane waves:    4764
 k-point ** :   0.5795 0.1591 0.5795  plane waves:    4760
 k-point ** :   0.5682 0.1364 0.5682  plane waves:    4756
 k-point ** :   0.5568 0.1136 0.5568  plane waves:    4764
 k-point ** :   0.5455 0.0909 0.5455  plane waves:    4776
 k-point ** :   0.5341 0.0682 0.5341  plane waves:    4780
 k-point ** :   0.5227 0.0455 0.5227  plane waves:    4740
 k-point ** :   0.5114 0.0227 0.5114  plane waves:    4724
 k-point ** :   0.5000 0.0000 0.5000  plane waves:    4692

 maximum and minimum number of plane-waves per node :      2436     2342

 maximum number of plane-waves:      4842
 maximum index in each direction: 
   IXMAX=    9   IYMAX=    9   IZMAX=    9
   IXMIN=   -9   IYMIN=   -9   IZMIN=  -10


 parallel 3D FFT for wavefunctions:
    minimum data exchange during FFTs selected (reduces bandwidth)
 parallel 3D FFT for charge:
    minimum data exchange during FFTs selected (reduces bandwidth)


 total amount of memory used by VASP MPI-rank0   306173. kBytes
=======================================================================

   base      :      30000. kBytes
   nonl-proj :      70311. kBytes
   fftplans  :      19688. kBytes
   grid      :      19456. kBytes
   one-center:         62. kBytes
   wavefun   :     166656. kBytes

     INWAV:  cpu time    0.0000: real time    0.0001
 initial charge density was supplied:
 number of electron      20.0000002 magnetization       0.0000027      0.0000028      0.0000027
 keeping initial charge density in first step


--------------------------------------------------------------------------------------------------------


 Maximum index for augmentation-charges        50669 (set IRDMAX)


--------------------------------------------------------------------------------------------------------


 First call to EWALD:  gamma=   0.427
 Maximum number of real-space cells 3x 3x 3
 Maximum number of reciprocal cells 3x 3x 3

    FEWALD:  cpu time    0.0009: real time    0.0009


--------------------------------------- Iteration      1(   1)  ---------------------------------------


    POTLOK:  cpu time    0.2874: real time    0.2888
    SETDIJ:  cpu time    0.5137: real time    0.5150
    TRIAL :  cpu time   19.2250: real time   19.3733
    CORREC:  cpu time    0.0023: real time    0.0023
    --------------------------------------------
      LOOP:  cpu time   20.1013: real time   20.2524

 eigenvalue-minimisations  : 11200
 total energy-change (2. order) : 0.1991872E+03  (-0.9916260E+03)
 number of electron      20.0000002 magnetization       0.0000027      0.0000028      0.0000027
 augmentation part       20.0000002 magnetization       0.0000027      0.0000028      0.0000027

 Free energy of the ion-electron system (eV)
  ---------------------------------------------------
  alpha Z        PSCENC =        34.09677339
  Ewald energy   TEWEN  =     -1363.85407897
  -Hartree energ DENC   =      -514.79387646
  -exchange      EXHF   =         0.00000000
  -V(xc)+E(xc)   XCENC  =         9.69271452
  PAW double counting   =      1873.93652555    -1818.62012337
  entropy T*S    EENTRO =        -0.00004834
  eigenvalues    EBANDS =        93.84057150
  atomic energy  EATOM  =      1884.88874340
  ---------------------------------------------------
  free energy    TOTEN  =       199.18720123 eV

  energy without entropy =      199.18724957  energy(sigma->0) =      199.18722540


--------------------------------------------------------------------------------------------------------




--------------------------------------- Iteration      1(   2)  ---------------------------------------


    TRIAL :  cpu time   19.4534: real time   19.4708
    CORREC:  cpu time    0.0023: real time    0.0023
    --------------------------------------------
      LOOP:  cpu time   19.4560: real time   19.4733

 eigenvalue-minimisations  : 11352
 total energy-change (2. order) :-0.1870453E+03  (-0.1816977E+03)
 number of electron      20.0000002 magnetization       0.0000027      0.0000028      0.0000027
 augmentation part       20.0000002 magnetization       0.0000027      0.0000028      0.0000027

 Free energy of the ion-electron system (eV)
  ---------------------------------------------------
  alpha Z        PSCENC =        34.09677339
  Ewald energy   TEWEN  =     -1363.85407897
  -Hartree energ DENC   =      -514.79387646
  -exchange      EXHF   =         0.00000000
  -V(xc)+E(xc)   XCENC  =         9.69271452
  PAW double counting   =      1873.93652555    -1818.62012337
  entropy T*S    EENTRO =        -0.00005791
  eigenvalues    EBANDS =       -93.20468021
  atomic energy  EATOM  =      1884.88874340
  ---------------------------------------------------
  free energy    TOTEN  =        12.14193995 eV

  energy without entropy =       12.14199786  energy(sigma->0) =       12.14196890


--------------------------------------------------------------------------------------------------------




--------------------------------------- Iteration      1(   3)  ---------------------------------------


    TRIAL :  cpu time   22.9446: real time   23.0019
    CORREC:  cpu time    0.0021: real time    0.0021
    --------------------------------------------
      LOOP:  cpu time   22.9469: real time   23.0043

 eigenvalue-minimisations  : 14552
 total energy-change (2. order) :-0.1919198E+02  (-0.1861499E+02)
 number of electron      20.0000002 magnetization       0.0000027      0.0000028      0.0000027
 augmentation part       20.0000002 magnetization       0.0000027      0.0000028      0.0000027

 Free energy of the ion-electron system (eV)
  ---------------------------------------------------
  alpha Z        PSCENC =        34.09677339
  Ewald energy   TEWEN  =     -1363.85407897
  -Hartree energ DENC   =      -514.79387646
  -exchange      EXHF   =         0.00000000
  -V(xc)+E(xc)   XCENC  =         9.69271452
  PAW double counting   =      1873.93652555    -1818.62012337
  entropy T*S    EENTRO =        -0.00002562
  eigenvalues    EBANDS =      -112.39669162
  atomic energy  EATOM  =      1884.88874340
  ---------------------------------------------------
  free energy    TOTEN  =        -7.05003917 eV

  energy without entropy =       -7.05001355  energy(sigma->0) =       -7.05002636


--------------------------------------------------------------------------------------------------------




--------------------------------------- Iteration      1(   4)  ---------------------------------------


    TRIAL :  cpu time   22.2253: real time   22.2557
    CORREC:  cpu time    0.0008: real time    0.0008
    --------------------------------------------
      LOOP:  cpu time   22.2264: real time   22.2568

 eigenvalue-minimisations  : 14076
 total energy-change (2. order) :-0.8591239E+00  (-0.8562748E+00)
 number of electron      20.0000002 magnetization       0.0000027      0.0000028      0.0000027
 augmentation part       20.0000002 magnetization       0.0000027      0.0000028      0.0000027

 Free energy of the ion-electron system (eV)
  ---------------------------------------------------
  alpha Z        PSCENC =        34.09677339
  Ewald energy   TEWEN  =     -1363.85407897
  -Hartree energ DENC   =      -514.79387646
  -exchange      EXHF   =         0.00000000
  -V(xc)+E(xc)   XCENC  =         9.69271452
  PAW double counting   =      1873.93652555    -1818.62012337
  entropy T*S    EENTRO =        -0.00000000
  eigenvalues    EBANDS =      -113.25584112
  atomic energy  EATOM  =      1884.88874340
  ---------------------------------------------------
  free energy    TOTEN  =        -7.90916305 eV

  energy without entropy =       -7.90916305  energy(sigma->0) =       -7.90916305


--------------------------------------------------------------------------------------------------------




--------------------------------------- Iteration      1(   5)  ---------------------------------------


    TRIAL :  cpu time   24.3648: real time   24.4161
    CORREC:  cpu time    0.0009: real time    0.0008
    --------------------------------------------
      LOOP:  cpu time   24.3658: real time   24.4171

 eigenvalue-minimisations  : 15904
 total energy-change (2. order) :-0.3725151E-01  (-0.3724495E-01)
 number of electron      20.0000002 magnetization       0.0000027      0.0000028      0.0000027
 augmentation part       20.0000002 magnetization       0.0000027      0.0000028      0.0000027

 Free energy of the ion-electron system (eV)
  ---------------------------------------------------
  alpha Z        PSCENC =        34.09677339
  Ewald energy   TEWEN  =     -1363.85407897
  -Hartree energ DENC   =      -514.79387646
  -exchange      EXHF   =         0.00000000
  -V(xc)+E(xc)   XCENC  =         9.69271452
  PAW double counting   =      1873.93652555    -1818.62012337
  entropy T*S    EENTRO =        -0.00000000
  eigenvalues    EBANDS =      -113.29309262
  atomic energy  EATOM  =      1884.88874340
  ---------------------------------------------------
  free energy    TOTEN  =        -7.94641455 eV

  energy without entropy =       -7.94641455  energy(sigma->0) =       -7.94641455


--------------------------------------------------------------------------------------------------------




--------------------------------------- Iteration      1(   6)  ---------------------------------------


    TRIAL :  cpu time   12.7971: real time   12.8140
    CORREC:  cpu time    2.4481: real time    2.4562
    --------------------------------------------
      LOOP:  cpu time   15.2454: real time   15.2704

 eigenvalue-minimisations  :     0
 total energy-change (2. order) : 0.2728484E-11  (-0.4901379E-03)
 number of electron      20.0000002 magnetization       0.0000027      0.0000028      0.0000027
 augmentation part       20.0000002 magnetization       0.0000027      0.0000028      0.0000027

 Free energy of the ion-electron system (eV)
  ---------------------------------------------------
  alpha Z        PSCENC =        34.09677339
  Ewald energy   TEWEN  =     -1363.85407897
  -Hartree energ DENC   =      -514.79387646
  -exchange      EXHF   =         0.00000000
  -V(xc)+E(xc)   XCENC  =         9.69271452
  PAW double counting   =      1873.93652555    -1818.62012337
  entropy T*S    EENTRO =        -0.00000000
  eigenvalues    EBANDS =      -113.29309262
  atomic energy  EATOM  =      1884.88874340
  ---------------------------------------------------
  free energy    TOTEN  =        -7.94641455 eV

  energy without entropy =       -7.94641455  energy(sigma->0) =       -7.94641455


--------------------------------------------------------------------------------------------------------




--------------------------------------- Iteration      1(   7)  ---------------------------------------


    TRIAL :  cpu time   12.2031: real time   12.2126
    CORREC:  cpu time    2.4702: real time    2.4937
    --------------------------------------------
      LOOP:  cpu time   14.6735: real time   14.7066

 eigenvalue-minimisations  :     0
 total energy-change (2. order) :-0.4901378E-03  (-0.1944376E-03)
 number of electron      20.0000002 magnetization       0.0000027      0.0000028      0.0000027
 augmentation part       20.0000002 magnetization       0.0000027      0.0000028      0.0000027

 Free energy of the ion-electron system (eV)
  ---------------------------------------------------
  alpha Z        PSCENC =        34.09677339
  Ewald energy   TEWEN  =     -1363.85407897
  -Hartree energ DENC   =      -514.79387646
  -exchange      EXHF   =         0.00000000
  -V(xc)+E(xc)   XCENC  =         9.69271452
  PAW double counting   =      1873.93652555    -1818.62012337
  entropy T*S    EENTRO =        -0.00000000
  eigenvalues    EBANDS =      -113.29358276
  atomic energy  EATOM  =      1884.88874340
  ---------------------------------------------------
  free energy    TOTEN  =        -7.94690469 eV

  energy without entropy =       -7.94690469  energy(sigma->0) =       -7.94690469


--------------------------------------------------------------------------------------------------------




--------------------------------------- Iteration      1(   8)  ---------------------------------------


    TRIAL :  cpu time   12.8434: real time   12.8562
    CORREC:  cpu time    2.4303: real time    2.4365
    --------------------------------------------
      LOOP:  cpu time   15.2739: real time   15.2929

 eigenvalue-minimisations  :     0
 total energy-change (2. order) :-0.1944352E-03  (-0.6559499E-04)
 number of electron      20.0000002 magnetization       0.0000027      0.0000028      0.0000027
 augmentation part       20.0000002 magnetization       0.0000027      0.0000028      0.0000027

 Free energy of the ion-electron system (eV)
  ---------------------------------------------------
  alpha Z        PSCENC =        34.09677339
  Ewald energy   TEWEN  =     -1363.85407897
  -Hartree energ DENC   =      -514.79387646
  -exchange      EXHF   =         0.00000000
  -V(xc)+E(xc)   XCENC  =         9.69271452
  PAW double counting   =      1873.93652555    -1818.62012337
  entropy T*S    EENTRO =        -0.00000000
  eigenvalues    EBANDS =      -113.29377720
  atomic energy  EATOM  =      1884.88874340
  ---------------------------------------------------
  free energy    TOTEN  =        -7.94709913 eV

  energy without entropy =       -7.94709913  energy(sigma->0) =       -7.94709913


--------------------------------------------------------------------------------------------------------




--------------------------------------- Iteration      1(   9)  ---------------------------------------


    TRIAL :  cpu time   12.7861: real time   12.8143
    CORREC:  cpu time    2.4429: real time    2.4484
    --------------------------------------------
      LOOP:  cpu time   15.2293: real time   15.2630

 eigenvalue-minimisations  :     0
 total energy-change (2. order) :-0.6559245E-04  (-0.2084543E-04)
 number of electron      20.0000002 magnetization       0.0000027      0.0000028      0.0000027
 augmentation part       20.0000002 magnetization       0.0000027      0.0000028      0.0000027

 Free energy of the ion-electron system (eV)
  ---------------------------------------------------
  alpha Z        PSCENC =        34.09677339
  Ewald energy   TEWEN  =     -1363.85407897
  -Hartree energ DENC   =      -514.79387646
  -exchange      EXHF   =         0.00000000
  -V(xc)+E(xc)   XCENC  =         9.69271452
  PAW double counting   =      1873.93652555    -1818.62012337
  entropy T*S    EENTRO =        -0.00000000
  eigenvalues    EBANDS =      -113.29384279
  atomic energy  EATOM  =      1884.88874340
  ---------------------------------------------------
  free energy    TOTEN  =        -7.94716472 eV

  energy without entropy =       -7.94716472  energy(sigma->0) =       -7.94716472


--------------------------------------------------------------------------------------------------------




--------------------------------------- Iteration      1(  10)  ---------------------------------------


    TRIAL :  cpu time   12.7856: real time   12.7966
    CORREC:  cpu time    2.4264: real time    2.4320
    --------------------------------------------
      LOOP:  cpu time   15.2122: real time   15.2289

 eigenvalue-minimisations  :     0
 total energy-change (2. order) :-0.2084491E-04  (-0.4508196E-05)
 number of electron      20.0000002 magnetization       0.0000027      0.0000028      0.0000027
 augmentation part       20.0000002 magnetization       0.0000027      0.0000028      0.0000027

 Free energy of the ion-electron system (eV)
  ---------------------------------------------------
  alpha Z        PSCENC =        34.09677339
  Ewald energy   TEWEN  =     -1363.85407897
  -Hartree energ DENC   =      -514.79387646
  -exchange      EXHF   =         0.00000000
  -V(xc)+E(xc)   XCENC  =         9.69271452
  PAW double counting   =      1873.93652555    -1818.62012337
  entropy T*S    EENTRO =        -0.00000000
  eigenvalues    EBANDS =      -113.29386363
  atomic energy  EATOM  =      1884.88874340
  ---------------------------------------------------
  free energy    TOTEN  =        -7.94718556 eV

  energy without entropy =       -7.94718556  energy(sigma->0) =       -7.94718556


--------------------------------------------------------------------------------------------------------




--------------------------------------- Iteration      1(  11)  ---------------------------------------


    TRIAL :  cpu time   12.7498: real time   12.9217
    CORREC:  cpu time    2.4182: real time    2.4234
    --------------------------------------------
      LOOP:  cpu time   15.1682: real time   15.3453

 eigenvalue-minimisations  :     0
 total energy-change (2. order) :-0.4508165E-05  (-0.1162750E-05)
 number of electron      20.0000002 magnetization       0.0000027      0.0000028      0.0000027
 augmentation part       20.0000002 magnetization       0.0000027      0.0000028      0.0000027

 Free energy of the ion-electron system (eV)
  ---------------------------------------------------
  alpha Z        PSCENC =        34.09677339
  Ewald energy   TEWEN  =     -1363.85407897
  -Hartree energ DENC   =      -514.79387646
  -exchange      EXHF   =         0.00000000
  -V(xc)+E(xc)   XCENC  =         9.69271452
  PAW double counting   =      1873.93652555    -1818.62012337
  entropy T*S    EENTRO =        -0.00000000
  eigenvalues    EBANDS =      -113.29386814
  atomic energy  EATOM  =      1884.88874340
  ---------------------------------------------------
  free energy    TOTEN  =        -7.94719007 eV

  energy without entropy =       -7.94719007  energy(sigma->0) =       -7.94719007


--------------------------------------------------------------------------------------------------------




--------------------------------------- Iteration      1(  12)  ---------------------------------------


    TRIAL :  cpu time   12.8065: real time   12.8175
    CORREC:  cpu time    2.4399: real time    2.4454
    --------------------------------------------
      LOOP:  cpu time   15.2466: real time   15.2631

 eigenvalue-minimisations  :     0
 total energy-change (2. order) :-0.1162656E-05  (-0.3357656E-06)
 number of electron      20.0000002 magnetization       0.0000027      0.0000028      0.0000027
 augmentation part       20.0000002 magnetization       0.0000027      0.0000028      0.0000027

 Free energy of the ion-electron system (eV)
  ---------------------------------------------------
  alpha Z        PSCENC =        34.09677339
  Ewald energy   TEWEN  =     -1363.85407897
  -Hartree energ DENC   =      -514.79387646
  -exchange      EXHF   =         0.00000000
  -V(xc)+E(xc)   XCENC  =         9.69271452
  PAW double counting   =      1873.93652555    -1818.62012337
  entropy T*S    EENTRO =        -0.00000000
  eigenvalues    EBANDS =      -113.29386930
  atomic energy  EATOM  =      1884.88874340
  ---------------------------------------------------
  free energy    TOTEN  =        -7.94719124 eV

  energy without entropy =       -7.94719124  energy(sigma->0) =       -7.94719124


--------------------------------------------------------------------------------------------------------




--------------------------------------- Iteration      1(  13)  ---------------------------------------


    TRIAL :  cpu time   11.9610: real time   12.0212
    CORREC:  cpu time    2.4603: real time    2.4677
    --------------------------------------------
      LOOP:  cpu time   14.4216: real time   14.4892

 eigenvalue-minimisations  :     0
 total energy-change (2. order) :-0.3357654E-06  (-0.7691928E-07)
 number of electron      20.0000002 magnetization       0.0000027      0.0000028      0.0000027
 augmentation part       20.0000002 magnetization       0.0000027      0.0000028      0.0000027

 Free energy of the ion-electron system (eV)
  ---------------------------------------------------
  alpha Z        PSCENC =        34.09677339
  Ewald energy   TEWEN  =     -1363.85407897
  -Hartree energ DENC   =      -514.79387646
  -exchange      EXHF   =         0.00000000
  -V(xc)+E(xc)   XCENC  =         9.69271452
  PAW double counting   =      1873.93652555    -1818.62012337
  entropy T*S    EENTRO =        -0.00000000
  eigenvalues    EBANDS =      -113.29386964
  atomic energy  EATOM  =      1884.88874340
  ---------------------------------------------------
  free energy    TOTEN  =        -7.94719157 eV

  energy without entropy =       -7.94719157  energy(sigma->0) =       -7.94719157


--------------------------------------------------------------------------------------------------------




--------------------------------------- Iteration      1(  14)  ---------------------------------------


    TRIAL :  cpu time   12.7952: real time   12.8061
    CORREC:  cpu time    2.4416: real time    2.4467
    EDDIAG:  cpu time    4.2577: real time    4.2652
    --------------------------------------------
      LOOP:  cpu time   19.4947: real time   19.5182

 eigenvalue-minimisations  :     0
 total energy-change (2. order) :-0.7692074E-07  (-0.1990728E-07)
 number of electron      20.0000002 magnetization       0.0000027      0.0000028      0.0000027
 augmentation part       20.0000002 magnetization       0.0000027      0.0000028      0.0000027

 Free energy of the ion-electron system (eV)
  ---------------------------------------------------
  alpha Z        PSCENC =        34.09677339
  Ewald energy   TEWEN  =     -1363.85407897
  -Hartree energ DENC   =      -514.79387646
  -exchange      EXHF   =         0.00000000
  -V(xc)+E(xc)   XCENC  =         9.69271452
  PAW double counting   =      1873.93652555    -1818.62012337
  entropy T*S    EENTRO =        -0.00000000
  eigenvalues    EBANDS =      -113.29386972
  atomic energy  EATOM  =      1884.88874340
  ---------------------------------------------------
  free energy    TOTEN  =        -7.94719165 eV

  energy without entropy =       -7.94719165  energy(sigma->0) =       -7.94719165


--------------------------------------------------------------------------------------------------------


  average scaling for gradient   0.9466


 average (electrostatic) potential at core
  the test charge radii are     1.1897  1.1541
  (the norm of the test charge is              1.0000)
       1 -88.7769       2 -92.1415



 E-fermi :   5.0775     XC(G=0):  -9.0468     alpha+bet :-10.2399


 k-point     1 :       0.0000    0.0000    0.0000
  band No.  band energies     occupation 
      1     -13.1322      1.00000
      2     -13.1322      1.00000
      3     -13.1322      1.00000
      4     -13.1322      1.00000
      5     -10.5759      1.00000
      6     -10.5759      1.00000
      7     -10.5759      1.00000
      8     -10.5759      1.00000
      9     -10.5695      1.00000
     10     -10.5695      1.00000
     11      -6.6580      1.00000
     12      -6.6580      1.00000
     13      -0.7614      1.00000
     14      -0.7614      1.00000
     15       3.0498      1.00000
     16       3.0498      1.00000
     17       4.0833      1.00000
     18       4.0833      1.00000
     19       4.0833      1.00000
     20       4.0833      1.00000
     21       7.6071      0.00000
     22       7.6071      0.00000
     23       9.5535      0.00000
     24       9.5535      0.00000
     25       9.5536      0.00000
     26       9.5538      0.00000
     27      10.8213      0.00000
     28      10.8306      0.00000

 k-point     2 :       0.0172    0.0000    0.0172
  band No.  band energies     occupation 
      1     -13.1322      1.00000
      2     -13.1322      1.00000
      3     -13.1322      1.00000
      4     -13.1322      1.00000
      5     -10.5760      1.00000
      6     -10.5760      1.00000
      7     -10.5759      1.00000
      8     -10.5759      1.00000
      9     -10.5694      1.00000
     10     -10.5694      1.00000
     11      -6.6549      1.00000
     12      -6.6548      1.00000
     13      -0.7714      1.00000
     14      -0.7714      1.00000
     15       3.0529      1.00000
     16       3.0529      1.00000
     17       4.0782      1.00000
     18       4.0782      1.00000
     19       4.0927      1.00000
     20       4.0927      1.00000
     21       7.5942      0.00000
     22       7.5942      0.00000
     23       9.5069      0.00000
     24       9.5076      0.00000
     25       9.5510      0.00000
     26       9.5510      0.00000
     27      10.8167      0.00000
     28      10.8339      0.00000

 k-point     3 :       0.0345    0.0000    0.0345
  band No.  band energies     occupation 
      1     -13.1321      1.00000
      2     -13.1321      1.00000
      3     -13.1321      1.00000
      4     -13.1321      1.00000
      5     -10.5761      1.00000
      6     -10.5761      1.00000
      7     -10.5758      1.00000
      8     -10.5758      1.00000
      9     -10.5693      1.00000
     10     -10.5693      1.00000
     11      -6.6455      1.00000
     12      -6.6455      1.00000
     13      -0.8008      1.00000
     14      -0.8008      1.00000
     15       3.0607      1.00000
     16       3.0607      1.00000
     17       4.0630      1.00000
     18       4.0630      1.00000
     19       4.1216      1.00000
     20       4.1216      1.00000
     21       7.5539      0.00000
     22       7.5539      0.00000
     23       9.3826      0.00000
     24       9.3826      0.00000
     25       9.5444      0.00000
     26       9.5445      0.00000
     27      10.7537      0.00000
     28      10.8000      0.00000

 k-point     4 :       0.0517    0.0000    0.0517
  band No.  band energies     occupation 
      1     -13.1321      1.00000
      2     -13.1321      1.00000
      3     -13.1321      1.00000
      4     -13.1321      1.00000
      5     -10.5763      1.00000
      6     -10.5763      1.00000
      7     -10.5757      1.00000
      8     -10.5757      1.00000
      9     -10.5691      1.00000
     10     -10.5691      1.00000
     11      -6.6299      1.00000
     12      -6.6299      1.00000
     13      -0.8479      1.00000
     14      -0.8479      1.00000
     15       3.0694      1.00000
     16       3.0694      1.00000
     17       4.0381      1.00000
     18       4.0381      1.00000
     19       4.1715      1.00000
     20       4.1715      1.00000
     21       7.4823      0.00000
     22       7.4823      0.00000
     23       9.2159      0.00000
     24       9.2159      0.00000
     25       9.5359      0.00000
     26       9.5359      0.00000
     27      10.6533      0.00000
     28      10.6851      0.00000

 k-point     5 :       0.0690    0.0000    0.0690
  band No.  band energies     occupation 
      1     -13.1321      1.00000
      2     -13.1321      1.00000
      3     -13.1320      1.00000
      4     -13.1320      1.00000
      5     -10.5766      1.00000
      6     -10.5766      1.00000
      7     -10.5756      1.00000
      8     -10.5756      1.00000
      9     -10.5688      1.00000
     10     -10.5688      1.00000
     11      -6.6081      1.00000
     12      -6.6081      1.00000
     13      -0.9103      1.00000
     14      -0.9103      1.00000
     15       3.0739      1.00000
     16       3.0739      1.00000
     17       4.0040      1.00000
     18       4.0040      1.00000
     19       4.2435      1.00000
     20       4.2435      1.00000
     21       7.3741      0.00000
     22       7.3741      0.00000
     23       9.0431      0.00000
     24       9.0431      0.00000
     25       9.5285      0.00000
     26       9.5286      0.00000
     27      10.5337      0.00000
     28      10.5477      0.00000

 k-point     6 :       0.0862    0.0000    0.0862
  band No.  band energies     occupation 
      1     -13.1321      1.00000
      2     -13.1321      1.00000
      3     -13.1319      1.00000
      4     -13.1319      1.00000
[...]
 -0.000   0.000  -0.000   0.000  -0.000   0.000  12.718   0.000   0.000   0.000  -0.000   0.000  18.333   0.000   0.000   0.000
 -0.000   0.000  -0.000   0.000   0.000  -0.247   0.000   0.000  12.718   0.000   0.000  -0.356   0.000   0.000  18.333   0.000
 -0.000   0.000  -0.000   0.000  18.333   0.000  -0.000   0.000   0.000   0.356  26.435   0.000  -0.000   0.000   0.000   0.513
 -0.000   0.000  -0.000   0.000  -0.000   0.000  18.333   0.000   0.000   0.000  -0.000   0.000  26.435   0.000   0.000   0.000
 -0.000   0.000  -0.000   0.000   0.000  -0.356   0.000   0.000  18.333   0.000   0.000  -0.513   0.000   0.000  26.435   0.000
  0.000   0.000   0.000   0.000  -0.000   0.000  -0.000   0.000  -0.000   0.000  -0.000   0.000  -0.000   0.000  -0.000   0.000
 -0.000   0.000  -0.000   0.000  -0.000   0.000  -0.000   0.000  -0.000   0.000  -0.000   0.000  -0.000   0.000  -0.000   0.000
  0.000   0.000   0.000   0.000   0.000   0.000   0.000   0.000   0.000   0.000   0.000   0.000  -0.000   0.000   0.000   0.000
  0.000   0.000   0.000   0.000  -0.000   0.000  -0.000   0.000  -0.000   0.000  -0.000   0.000  -0.000   0.000  -0.000   0.000
  0.000   0.000   0.000   0.000   0.000   0.000  -0.000   0.000  -0.000   0.000   0.000   0.000  -0.000   0.000  -0.000   0.000
 pseudopotential strength for first ion, spin component:           2
  0.000  -0.000   0.000  -0.000   0.000   0.000   0.000   0.000   0.000  -0.000   0.000   0.000   0.000   0.000   0.000  -0.000
  0.000  -0.000   0.000  -0.000   0.000   0.000   0.000   0.000   0.000  -0.000   0.000   0.000   0.000   0.000   0.000  -0.000
  0.000   0.000   0.000   0.000   0.000  -0.000   0.000  -0.247  -0.000  -0.000   0.000  -0.000   0.000  -0.356  -0.000  -0.000
  0.000   0.000   0.000   0.000   0.000   0.247   0.000  -0.000  -0.247  -0.000   0.000   0.356   0.000  -0.000  -0.356  -0.000
  0.000  -0.000   0.000  -0.000  -0.000  -0.000   0.247  -0.000   0.000  -0.000  -0.000  -0.000   0.356  -0.000   0.000  -0.000
  0.000   0.000   0.000   0.000   0.000  -0.000   0.000  -0.356  -0.000  -0.000   0.000  -0.000   0.000  -0.513  -0.000  -0.000
  0.000   0.000   0.000   0.000   0.000   0.356   0.000  -0.000  -0.356  -0.000   0.000   0.513   0.000  -0.000  -0.513  -0.000
  0.000  -0.000   0.000  -0.000  -0.000  -0.000   0.356  -0.000   0.000  -0.000  -0.000  -0.000   0.513  -0.000   0.000  -0.000
 -0.000  -0.000  -0.000  -0.000   0.000  -0.000   0.000  -0.000   0.000  -0.000   0.000  -0.000   0.000  -0.000   0.000  -0.000
  0.000  -0.000   0.000  -0.000   0.000   0.000   0.000   0.000   0.000  -0.000   0.000   0.000   0.000   0.000   0.000  -0.000
 -0.000   0.000  -0.000   0.000   0.000   0.000   0.000   0.000  -0.000   0.000   0.000   0.000   0.000   0.000  -0.000   0.000
 -0.000  -0.000  -0.000  -0.000   0.000  -0.000   0.000  -0.000   0.000  -0.000   0.000  -0.000   0.000  -0.000   0.000  -0.000
  0.000   0.000   0.000   0.000  -0.000  -0.000  -0.000  -0.000   0.000  -0.000  -0.000  -0.000  -0.000  -0.000   0.000  -0.000
 pseudopotential strength for first ion, spin component:           3
  0.000   0.000   0.000   0.000   0.000  -0.000   0.000  -0.000   0.000   0.000   0.000  -0.000   0.000  -0.000   0.000   0.000
  0.000   0.000   0.000   0.000   0.000  -0.000   0.000  -0.000   0.000   0.000   0.000  -0.000   0.000  -0.000   0.000   0.000
  0.000  -0.000   0.000  -0.000   0.000   0.000   0.000  -0.247  -0.000   0.000   0.000   0.000   0.000  -0.356  -0.000   0.000
  0.000  -0.000   0.000  -0.000   0.000   0.247   0.000   0.000   0.247   0.000   0.000   0.356   0.000   0.000   0.356   0.000
  0.000   0.000   0.000   0.000  -0.000   0.000  -0.247   0.000   0.000   0.000  -0.000   0.000  -0.356   0.000   0.000   0.000
  0.000  -0.000   0.000  -0.000   0.000   0.000   0.000  -0.356  -0.000   0.000   0.000   0.000   0.000  -0.513  -0.000   0.000
  0.000  -0.000   0.000  -0.000   0.000   0.356   0.000   0.000   0.356   0.000   0.000   0.513   0.000   0.000   0.513   0.000
  0.000   0.000   0.000   0.000  -0.000   0.000  -0.356   0.000   0.000   0.000  -0.000   0.000  -0.513   0.000   0.000   0.000
 -0.000   0.000  -0.000   0.000   0.000   0.000   0.000   0.000   0.000   0.000   0.000   0.000   0.000   0.000   0.000   0.000
  0.000   0.000   0.000   0.000   0.000  -0.000   0.000  -0.000   0.000   0.000   0.000  -0.000   0.000  -0.000   0.000   0.000
 -0.000  -0.000  -0.000  -0.000   0.000  -0.000   0.000  -0.000  -0.000  -0.000   0.000  -0.000   0.000  -0.000  -0.000  -0.000
 -0.000   0.000  -0.000   0.000   0.000   0.000   0.000   0.000   0.000   0.000   0.000   0.000   0.000   0.000   0.000   0.000
  0.000  -0.000   0.000  -0.000  -0.000   0.000  -0.000   0.000   0.000   0.000  -0.000   0.000  -0.000   0.000   0.000   0.000
 pseudopotential strength for first ion, spin component:           4
 51.605   0.000  56.148   0.000   0.000   0.000   0.000   0.000   0.000   0.000   0.000   0.000   0.000   0.000   0.000   0.000
 56.148   0.000  61.094   0.000   0.000   0.000   0.000   0.000   0.000   0.000   0.000   0.000   0.000   0.000   0.000   0.000
  0.000   0.000   0.000   0.000  12.718   0.000   0.000   0.000  -0.000  -0.247  18.333   0.000   0.000   0.000  -0.000  -0.356
  0.000   0.000   0.000   0.000   0.000   0.000  12.718   0.000  -0.000   0.000   0.000   0.000  18.333   0.000  -0.000   0.000
  0.000   0.000   0.000   0.000  -0.000   0.247  -0.000   0.000  12.718   0.000  -0.000   0.356  -0.000   0.000  18.333   0.000
  0.000   0.000   0.000   0.000  18.333   0.000   0.000   0.000  -0.000  -0.356  26.435   0.000   0.000   0.000  -0.000  -0.513
  0.000   0.000   0.000   0.000   0.000   0.000  18.333   0.000  -0.000   0.000   0.000   0.000  26.435   0.000  -0.000   0.000
  0.000   0.000   0.000   0.000  -0.000   0.356  -0.000   0.000  18.333   0.000  -0.000   0.513  -0.000   0.000  26.435   0.000
 -0.000   0.000  -0.000   0.000   0.000   0.000   0.000   0.000   0.000   0.000   0.000   0.000   0.000   0.000   0.000   0.000
  0.000   0.000   0.000   0.000   0.000   0.000   0.000   0.000   0.000   0.000   0.000   0.000   0.000   0.000   0.000   0.000
 -0.000   0.000  -0.000   0.000  -0.000   0.000  -0.000   0.000  -0.000   0.000  -0.000   0.000  -0.000   0.000  -0.000   0.000
 -0.000   0.000  -0.000   0.000   0.000   0.000   0.000   0.000   0.000   0.000   0.000   0.000   0.000   0.000   0.000   0.000
 -0.000   0.000  -0.000   0.000  -0.000   0.000   0.000   0.000   0.000   0.000  -0.000   0.000   0.000   0.000   0.000   0.000
 total augmentation occupancy for first ion, spin component:           1
  2.000   0.000   0.000   0.000   0.000   0.000   0.000   0.000   0.000   0.000   0.000   0.000   0.000
  0.000   0.000   0.000   0.000   0.000   0.000   0.000   0.000   0.000   0.000   0.000   0.000   0.000
  0.000   0.000   1.333   0.000   0.000   0.000   0.000   0.000   0.000   0.000   0.000   0.000   0.000
  0.000   0.000   0.000   1.333   0.000   0.000   0.000   0.000   0.000   0.000   0.000   0.000   0.000
  0.000   0.000   0.000   0.000   1.333   0.000   0.000   0.000   0.000   0.000   0.000   0.000   0.000
  0.000   0.000   0.000   0.000   0.000   0.000   0.000   0.000   0.000   0.000   0.000   0.000   0.000
  0.000   0.000   0.000   0.000   0.000   0.000   0.000   0.000   0.000   0.000   0.000   0.000   0.000
  0.000   0.000   0.000   0.000   0.000   0.000   0.000   0.000   0.000   0.000   0.000   0.000   0.000
  0.000   0.000   0.000   0.000   0.000   0.000   0.000   0.000   0.000   0.000   0.000   0.000   0.000
  0.000   0.000   0.000   0.000   0.000   0.000   0.000   0.000   0.000   0.000   0.000   0.000   0.000
  0.000   0.000   0.000   0.000   0.000   0.000   0.000   0.000   0.000   0.000   0.000   0.000   0.000
  0.000   0.000   0.000   0.000   0.000   0.000   0.000   0.000   0.000   0.000   0.000   0.000   0.000
  0.000   0.000   0.000   0.000   0.000   0.000   0.000   0.000   0.000   0.000   0.000   0.000   0.000
 total augmentation occupancy for first ion, spin component:           2
  0.333   0.000   0.000   0.000   0.000   0.000   0.000   0.000   0.000   0.000   0.000   0.000   0.000
  0.000   0.000   0.000   0.000   0.000   0.000   0.000   0.000   0.000   0.000   0.000   0.000   0.000
  0.000   0.000   0.222   0.000   0.000   0.000   0.000   0.000   0.000   0.000   0.000   0.000   0.000
  0.000   0.000   0.000   0.222   0.000   0.000   0.000   0.000   0.000   0.000   0.000   0.000   0.000
  0.000   0.000   0.000   0.000   0.222   0.000   0.000   0.000   0.000   0.000   0.000   0.000   0.000
  0.000   0.000   0.000   0.000   0.000   0.000   0.000   0.000   0.000   0.000   0.000   0.000   0.000
  0.000   0.000   0.000   0.000   0.000   0.000   0.000   0.000   0.000   0.000   0.000   0.000   0.000
  0.000   0.000   0.000   0.000   0.000   0.000   0.000   0.000   0.000   0.000   0.000   0.000   0.000
  0.000   0.000   0.000   0.000   0.000   0.000   0.000   0.000   0.000   0.000   0.000   0.000   0.000
  0.000   0.000   0.000   0.000   0.000   0.000   0.000   0.000   0.000   0.000   0.000   0.000   0.000
  0.000   0.000   0.000   0.000   0.000   0.000   0.000   0.000   0.000   0.000   0.000   0.000   0.000
  0.000   0.000   0.000   0.000   0.000   0.000   0.000   0.000   0.000   0.000   0.000   0.000   0.000
  0.000   0.000   0.000   0.000   0.000   0.000   0.000   0.000   0.000   0.000   0.000   0.000   0.000
 total augmentation occupancy for first ion, spin component:           3
  0.333   0.000   0.000   0.000   0.000   0.000   0.000   0.000   0.000   0.000   0.000   0.000   0.000
  0.000   0.000   0.000   0.000   0.000   0.000   0.000   0.000   0.000   0.000   0.000   0.000   0.000
  0.000   0.000   0.222   0.000   0.000   0.000   0.000   0.000   0.000   0.000   0.000   0.000   0.000
  0.000   0.000   0.000   0.222   0.000   0.000   0.000   0.000   0.000   0.000   0.000   0.000   0.000
  0.000   0.000   0.000   0.000   0.222   0.000   0.000   0.000   0.000   0.000   0.000   0.000   0.000
  0.000   0.000   0.000   0.000   0.000   0.000   0.000   0.000   0.000   0.000   0.000   0.000   0.000
  0.000   0.000   0.000   0.000   0.000   0.000   0.000   0.000   0.000   0.000   0.000   0.000   0.000
  0.000   0.000   0.000   0.000   0.000   0.000   0.000   0.000   0.000   0.000   0.000   0.000   0.000
  0.000   0.000   0.000   0.000   0.000   0.000   0.000   0.000   0.000   0.000   0.000   0.000   0.000
  0.000   0.000   0.000   0.000   0.000   0.000   0.000   0.000   0.000   0.000   0.000   0.000   0.000
  0.000   0.000   0.000   0.000   0.000   0.000   0.000   0.000   0.000   0.000   0.000   0.000   0.000
  0.000   0.000   0.000   0.000   0.000   0.000   0.000   0.000   0.000   0.000   0.000   0.000   0.000
  0.000   0.000   0.000   0.000   0.000   0.000   0.000   0.000   0.000   0.000   0.000   0.000   0.000
 total augmentation occupancy for first ion, spin component:           4
  0.333   0.000   0.000   0.000   0.000   0.000   0.000   0.000   0.000   0.000   0.000   0.000   0.000
  0.000   0.000   0.000   0.000   0.000   0.000   0.000   0.000   0.000   0.000   0.000   0.000   0.000
  0.000   0.000   0.222   0.000   0.000   0.000   0.000   0.000   0.000   0.000   0.000   0.000   0.000
  0.000   0.000   0.000   0.222   0.000   0.000   0.000   0.000   0.000   0.000   0.000   0.000   0.000
  0.000   0.000   0.000   0.000   0.222   0.000   0.000   0.000   0.000   0.000   0.000   0.000   0.000
  0.000   0.000   0.000   0.000   0.000   0.000   0.000   0.000   0.000   0.000   0.000   0.000   0.000
  0.000   0.000   0.000   0.000   0.000   0.000   0.000   0.000   0.000   0.000   0.000   0.000   0.000
  0.000   0.000   0.000   0.000   0.000   0.000   0.000   0.000   0.000   0.000   0.000   0.000   0.000
  0.000   0.000   0.000   0.000   0.000   0.000   0.000   0.000   0.000   0.000   0.000   0.000   0.000
  0.000   0.000   0.000   0.000   0.000   0.000   0.000   0.000   0.000   0.000   0.000   0.000   0.000
  0.000   0.000   0.000   0.000   0.000   0.000   0.000   0.000   0.000   0.000   0.000   0.000   0.000
  0.000   0.000   0.000   0.000   0.000   0.000   0.000   0.000   0.000   0.000   0.000   0.000   0.000
  0.000   0.000   0.000   0.000   0.000   0.000   0.000   0.000   0.000   0.000   0.000   0.000   0.000


------------------------ aborting loop because EDIFF is reached ----------------------------------------


    CHARGE:  cpu time    2.1019: real time    2.1038
    FORLOC:  cpu time    0.0069: real time    0.0071
    FORNL :  cpu time    4.8266: real time    4.8293
    STRESS:  cpu time   14.7763: real time   14.7911
    FORCOR:  cpu time    0.2818: real time    0.2818
    FORHAR:  cpu time    0.0257: real time    0.0257
    OFIELD:  cpu time    0.0032: real time    0.0032

  FORCE on cell =-STRESS in cart. coord.  units (eV):
  Direction    XX          YY          ZZ          XY          YZ          ZX
  --------------------------------------------------------------------------------------
  Alpha Z    34.09677    34.09677    34.09677
  Ewald    -454.61815  -454.61815  -454.61815    -0.00000    -0.00000    -0.00000
  Hartree   168.65692   172.76552   172.72751     0.24971    -0.03978     0.19164
  E(xc)     -90.42709   -90.19314   -90.18056     0.04346     0.02220     0.03430
  Local    -128.23393  -132.50311  -132.85554     0.11557     0.32443     0.11553
  n-local   181.48343   179.37263   179.63317    -0.36512    -0.24833    -0.30361
  augment    95.78822    96.31212    96.09729     0.04382     0.04737     0.04035
  Kinetic   198.48093   192.97481   192.73596    -2.50791    -1.25784    -1.98344
  Fock        0.00000     0.00000     0.00000     0.00000     0.00000     0.00000
  -------------------------------------------------------------------------------------
  Total       5.22712    -1.79253    -2.36354    -2.42047    -1.15197    -1.90522
  in kB     117.49160   -40.29135   -53.12605   -54.40567   -25.89309   -42.82430
  external pressure =        8.02 kB  Pullay stress =        0.00 kB


 VOLUME and BASIS-vectors are now :
 -----------------------------------------------------------------------------
  energy-cutoff  :      600.00
  volume of cell :       71.28
      direct lattice vectors                 reciprocal lattice vectors
     0.000000000  3.290880610  3.290880610    -0.151935017  0.151935017  0.151935017
     3.290880610  0.000000000  3.290880610     0.151935017 -0.151935017  0.151935017
     3.290880610  3.290880610  0.000000000     0.151935017  0.151935017 -0.151935017

  length of vectors
     4.654007991  4.654007991  4.654007991     0.263159168  0.263159168  0.263159168


 FORCES acting on ions
    electron-ion (+dipol)            ewald-force                    non-local-force                 convergence-correction
 -----------------------------------------------------------------------------------------------
   -.545E-06 0.587E-06 -.933E-06   -.195E-14 0.169E-15 -.330E-15   0.290E-05 -.360E-06 0.217E-06   -.844E-06 0.402E-07 0.374E-06
   -.564E-05 0.286E-05 -.128E-05   0.325E-14 0.191E-15 -.106E-14   0.306E-05 -.310E-05 -.223E-06   0.401E-05 -.194E-05 -.492E-06
 -----------------------------------------------------------------------------------------------
   -.619E-05 0.345E-05 -.221E-05   0.130E-14 0.360E-15 -.139E-14   0.596E-05 -.346E-05 -.599E-08   0.316E-05 -.190E-05 -.117E-06


 POSITION                                       TOTAL-FORCE (eV/Angst)
 -----------------------------------------------------------------------------------
      0.00000      0.00000      0.00000         0.000000      0.000001      0.000001
      3.29088      3.29088      3.29088        -0.000000     -0.000001     -0.000001
 -----------------------------------------------------------------------------------
    total drift:                                0.000003     -0.000002     -0.000002


--------------------------------------------------------------------------------------------------------



  FREE ENERGIE OF THE ION-ELECTRON SYSTEM (eV)
  ---------------------------------------------------
  free  energy   TOTEN  =        -7.94719165 eV

  energy  without entropy=       -7.94719165  energy(sigma->0) =       -7.94719165



--------------------------------------------------------------------------------------------------------


    POTLOK:  cpu time    0.7918: real time    0.7922


--------------------------------------------------------------------------------------------------------


     LOOP+:  cpu time  272.3950: real time  273.1459
    4ORBIT:  cpu time    0.0000: real time    0.0000

 Spin-Orbit-Coupling matrix elements

 Ion:    1  E_soc:     -0.1850149
 l=   1
     0.0000000    -0.0383968    -0.0302034
    -0.0383968     0.0000000    -0.0239862
    -0.0302034    -0.0239862     0.0000000
 l=   2
     0.0000000    -0.0000067     0.0000000    -0.0000117     0.0000346
    -0.0000067     0.0000000     0.0000262    -0.0000069     0.0000115
     0.0000000     0.0000262     0.0000000     0.0000227     0.0000000
    -0.0000117    -0.0000069     0.0000227     0.0000000     0.0000093
     0.0000346     0.0000115     0.0000000     0.0000093     0.0000000
 l=   3
     0.0000000     0.0000000     0.0000000     0.0000000     0.0000000     0.0000000     0.0000000
     0.0000000     0.0000000     0.0000000     0.0000000     0.0000000     0.0000000     0.0000000
     0.0000000     0.0000000     0.0000000     0.0000000     0.0000000     0.0000000     0.0000000
     0.0000000     0.0000000     0.0000000     0.0000000     0.0000000     0.0000000     0.0000000
     0.0000000     0.0000000     0.0000000     0.0000000     0.0000000     0.0000000     0.0000000
     0.0000000     0.0000000     0.0000000     0.0000000     0.0000000     0.0000000     0.0000000
     0.0000000     0.0000000     0.0000000     0.0000000     0.0000000     0.0000000     0.0000000

 Ion:    2  E_soc:     -0.8497533
 l=   1
     0.0000000    -0.0818806    -0.0713833
    -0.0818806     0.0000000    -0.0694402
    -0.0713833    -0.0694402     0.0000000
 l=   2
     0.0000000    -0.0133912     0.0000000    -0.0135128    -0.0539982
    -0.0133912     0.0000000    -0.0401503    -0.0134631    -0.0133413
     0.0000000    -0.0401503     0.0000000    -0.0407314     0.0000000
    -0.0135128    -0.0134631    -0.0407314     0.0000000    -0.0135842
    -0.0539982    -0.0133413     0.0000000    -0.0135842     0.0000000
 l=   3
     0.0000000     0.0000000     0.0000000     0.0000000     0.0000000     0.0000000     0.0000000
     0.0000000     0.0000000     0.0000000     0.0000000     0.0000000     0.0000000     0.0000000
     0.0000000     0.0000000     0.0000000     0.0000000     0.0000000     0.0000000     0.0000000
     0.0000000     0.0000000     0.0000000     0.0000000     0.0000000     0.0000000     0.0000000
     0.0000000     0.0000000     0.0000000     0.0000000     0.0000000     0.0000000     0.0000000
     0.0000000     0.0000000     0.0000000     0.0000000     0.0000000     0.0000000     0.0000000
     0.0000000     0.0000000     0.0000000     0.0000000     0.0000000     0.0000000     0.0000000

 total amount of memory used by VASP MPI-rank0   306173. kBytes
=======================================================================

   base      :      30000. kBytes
   nonl-proj :      70311. kBytes
   fftplans  :      19688. kBytes
   grid      :      19456. kBytes
   one-center:         62. kBytes
   wavefun   :     166656. kBytes

  
  
 General timing and accounting informations for this job:
 ========================================================
  
                  Total CPU time used (sec):      278.373
                            User time (sec):      275.035
                          System time (sec):        3.338
                         Elapsed time (sec):      279.160
  
                   Maximum memory used (kb):      355340.
                   Average memory used (kb):           0.
  
                          Minor page faults:       796749
                          Major page faults:            0
                 Voluntary context switches:         4347
