<?xml version="1.0" encoding="ISO-8859-1"?>
<modeling>
 <generator>
  <i name="program" type="string">vasp </i>
  <i name="version" type="string">5.4.4.18Apr17-6-g9f103f2a35  </i>
  <i name="subversion" type="string">(build Mar 20 2018 18:07:30) complex            parallel </i>
  <i name="platform" type="string">LinuxGNU </i>
  <i name="date" type="string">2020 07 10 </i>
  <i name="time" type="string">18:47:09 </i>
 </generator>
 <incar>
  <i type="string" name="SYSTEM"> PbTe</i>
  <i type="int" name="ISTART">     1</i>
  <i type="string" name="PREC">accurate</i>
  <i type="string" name="ALGO"> A</i>
  <i type="logical" name="ADDGRID"> T  </i>
  <i type="logical" name="LSORBIT"> T  </i>
  <i type="int" name="ISPIN">     1</i>
  <i type="int" name="ICHARG">    11</i>
  <i type="int" name="IBRION">    -1</i>
  <i name="EDIFF">      0.00000010</i>
  <i name="EDIFFG">     -0.00100000</i>
  <i type="int" name="NSW">     0</i>
  <i type="int" name="ISYM">    -1</i>
  <i name="ENCUT">    600.00000000</i>
  <i type="int" name="NBANDS">    28</i>
  <i type="logical" name="LREAL"> F  </i>
  <i type="logical" name="LPLANE"> T  </i>
  <i type="int" name="ISMEAR">     0</i>
  <i name="SIGMA">      0.01000000</i>
  <i type="int" name="LMAXMIX">     4</i>
  <i type="logical" name="LWAVE"> F  </i>
  <i type="logical" name="LCHARG"> F  </i>
  <i type="logical" name="GGA_COMPAT"> F  </i>
  <v type="int" name="KPOINT_BSE">    -1     0     0     0</v>
 </incar>
 <structure name="primitive_cell" >
  <crystal>
   <varray name="basis" >
    <v>       0.00000000       3.29088061       3.29088061 </v>
    <v>       3.29088061       0.00000000       3.29088061 </v>
    <v>       3.29088061       3.29088061       0.00000000 </v>
   </varray>
   <i name="volume">     71.27978417 </i>
   <varray name="rec_basis" >
    <v>      -0.15193502       0.15193502       0.15193502 </v>
    <v>       0.15193502      -0.15193502       0.15193502 </v>
    <v>       0.15193502       0.15193502      -0.15193502 </v>
   </varray>
  </crystal>
  <varray name="positions" >
   <v>       0.00000000       0.00000000       0.00000000 </v>
   <v>      -0.50000000      -0.50000000      -0.50000000 </v>
  </varray>
 </structure>
 <varray name="primitive_index" >
  <v type="int" >        1 </v>
  <v type="int" >        2 </v>
 </varray>
 <kpoints>
  <varray name="kpointlist" >
   <v>       0.00000000       0.00000000       0.00000000 </v>
   <v>       0.01724138       0.00000000       0.01724138 </v>
   <v>       0.03448276       0.00000000       0.03448276 </v>
   <v>       0.05172414       0.00000000       0.05172414 </v>
   <v>       0.06896552       0.00000000       0.06896552 </v>
   <v>       0.08620690       0.00000000       0.08620690 </v>
   <v>       0.10344828       0.00000000       0.10344828 </v>
   <v>       0.12068966       0.00000000       0.12068966 </v>
   <v>       0.13793103       0.00000000       0.13793103 </v>
   <v>       0.15517241      -0.00000000       0.15517241 </v>
   <v>       0.17241379       0.00000000       0.17241379 </v>
   <v>       0.18965517       0.00000000       0.18965517 </v>
   <v>       0.20689655       0.00000000       0.20689655 </v>
   <v>       0.22413793       0.00000000       0.22413793 </v>
   <v>       0.24137931       0.00000000       0.24137931 </v>
   <v>       0.25862069       0.00000000       0.25862069 </v>
   <v>       0.27586207       0.00000000       0.27586207 </v>
   <v>       0.29310345       0.00000000       0.29310345 </v>
   <v>       0.31034483      -0.00000000       0.31034483 </v>
   <v>       0.32758621       0.00000000       0.32758621 </v>
   <v>       0.34482759       0.00000000       0.34482759 </v>
   <v>       0.36206897       0.00000000       0.36206897 </v>
   <v>       0.37931034       0.00000000       0.37931034 </v>
   <v>       0.39655172       0.00000000       0.39655172 </v>
   <v>       0.41379310       0.00000000       0.41379310 </v>
   <v>       0.43103448       0.00000000       0.43103448 </v>
   <v>       0.44827586       0.00000000       0.44827586 </v>
   <v>       0.46551724       0.00000000       0.46551724 </v>
   <v>       0.48275862       0.00000000       0.48275862 </v>
   <v>       0.50000000       0.00000000       0.50000000 </v>
   <v>       0.50000000       0.00000000       0.50000000 </v>
   <v>       0.50000000       0.01666667       0.51666667 </v>
   <v>       0.50000000       0.03333333       0.53333333 </v>
   <v>       0.50000000       0.05000000       0.55000000 </v>
   <v>       0.50000000       0.06666667       0.56666667 </v>
   <v>       0.50000000       0.08333333       0.58333333 </v>
   <v>       0.50000000       0.10000000       0.60000000 </v>
   <v>       0.50000000       0.11666667       0.61666667 </v>
   <v>       0.50000000       0.13333333       0.63333333 </v>
   <v>       0.50000000       0.15000000       0.65000000 </v>
   <v>       0.50000000       0.16666667       0.66666667 </v>
   <v>       0.50000000       0.18333333       0.68333333 </v>
   <v>       0.50000000       0.20000000       0.70000000 </v>
   <v>       0.50000000       0.21666667       0.71666667 </v>
   <v>       0.50000000       0.23333333       0.73333333 </v>
   <v>       0.50000000       0.25000000       0.75000000 </v>
   <v>       0.50000000       0.25000000       0.75000000 </v>
   <v>       0.48863636       0.26136364       0.75000000 </v>
   <v>       0.47727273       0.27272727       0.75000000 </v>
   <v>       0.46590909       0.28409091       0.75000000 </v>
   <v>       0.45454545       0.29545455       0.75000000 </v>
   <v>       0.44318182       0.30681818       0.75000000 </v>
   <v>       0.43181818       0.31818182       0.75000000 </v>
   <v>       0.42045455       0.32954545       0.75000000 </v>
   <v>       0.40909091       0.34090909       0.75000000 </v>
   <v>       0.39772727       0.35227273       0.75000000 </v>
   <v>       0.38636364       0.36363636       0.75000000 </v>
   <v>       0.37500000       0.37500000       0.75000000 </v>
   <v>       0.37500000       0.37500000       0.75000000 </v>
   <v>       0.36290323       0.36290323       0.72580645 </v>
   <v>       0.35080645       0.35080645       0.70161290 </v>
   <v>       0.33870968       0.33870968       0.67741935 </v>
   <v>       0.32661290       0.32661290       0.65322581 </v>
   <v>       0.31451613       0.31451613       0.62903226 </v>
   <v>       0.30241935       0.30241935       0.60483871 </v>
   <v>       0.29032258       0.29032258       0.58064516 </v>
   <v>       0.27822581       0.27822581       0.55645161 </v>
   <v>       0.26612903       0.26612903       0.53225806 </v>
   <v>       0.25403226       0.25403226       0.50806452 </v>
   <v>       0.24193548       0.24193548       0.48387097 </v>
   <v>       0.22983871       0.22983871       0.45967742 </v>
   <v>       0.21774194       0.21774194       0.43548387 </v>
   <v>       0.20564516       0.20564516       0.41129032 </v>
   <v>       0.19354839       0.19354839       0.38709677 </v>
   <v>       0.18145161       0.18145161       0.36290323 </v>
   <v>       0.16935484       0.16935484       0.33870968 </v>
   <v>       0.15725806       0.15725806       0.31451613 </v>
   <v>       0.14516129       0.14516129       0.29032258 </v>
   <v>       0.13306452       0.13306452       0.26612903 </v>
   <v>       0.12096774       0.12096774       0.24193548 </v>
   <v>       0.10887097       0.10887097       0.21774194 </v>
   <v>       0.09677419       0.09677419       0.19354839 </v>
   <v>       0.08467742       0.08467742       0.16935484 </v>
   <v>       0.07258065       0.07258065       0.14516129 </v>
   <v>       0.06048387       0.06048387       0.12096774 </v>
   <v>       0.04838710       0.04838710       0.09677419 </v>
   <v>       0.03629032       0.03629032       0.07258065 </v>
   <v>       0.02419355       0.02419355       0.04838710 </v>
   <v>       0.01209677       0.01209677       0.02419355 </v>
   <v>       0.00000000       0.00000000       0.00000000 </v>
   <v>       0.00000000       0.00000000       0.00000000 </v>
   <v>       0.02000000       0.02000000       0.02000000 </v>
   <v>       0.04000000       0.04000000       0.04000000 </v>
   <v>       0.06000000       0.06000000       0.06000000 </v>
   <v>       0.08000000       0.08000000       0.08000000 </v>
   <v>       0.10000000       0.10000000       0.10000000 </v>
   <v>       0.12000000       0.12000000       0.12000000 </v>
   <v>       0.14000000       0.14000000       0.14000000 </v>
   <v>       0.16000000       0.16000000       0.16000000 </v>
   <v>       0.18000000       0.18000000       0.18000000 </v>
   <v>       0.20000000       0.20000000       0.20000000 </v>
   <v>       0.22000000       0.22000000       0.22000000 </v>
   <v>       0.24000000       0.24000000       0.24000000 </v>
   <v>       0.26000000       0.26000000       0.26000000 </v>
   <v>       0.28000000       0.28000000       0.28000000 </v>
   <v>       0.30000000       0.30000000       0.30000000 </v>
   <v>       0.32000000       0.32000000       0.32000000 </v>
   <v>       0.34000000       0.34000000       0.34000000 </v>
   <v>       0.36000000       0.36000000       0.36000000 </v>
   <v>       0.38000000       0.38000000       0.38000000 </v>
   <v>       0.40000000       0.40000000       0.40000000 </v>
   <v>       0.42000000       0.42000000       0.42000000 </v>
   <v>       0.44000000       0.44000000       0.44000000 </v>
   <v>       0.46000000       0.46000000       0.46000000 </v>
   <v>       0.48000000       0.48000000       0.48000000 </v>
   <v>       0.50000000       0.50000000       0.50000000 </v>
   <v>       0.50000000       0.50000000       0.50000000 </v>
   <v>       0.50694444       0.48611111       0.50694444 </v>
   <v>       0.51388889       0.47222222       0.51388889 </v>
   <v>       0.52083333       0.45833333       0.52083333 </v>
   <v>       0.52777778       0.44444444       0.52777778 </v>
   <v>       0.53472222       0.43055556       0.53472222 </v>
   <v>       0.54166667       0.41666667       0.54166667 </v>
   <v>       0.54861111       0.40277778       0.54861111 </v>
   <v>       0.55555556       0.38888889       0.55555556 </v>
   <v>       0.56250000       0.37500000       0.56250000 </v>
   <v>       0.56944444       0.36111111       0.56944444 </v>
   <v>       0.57638889       0.34722222       0.57638889 </v>
   <v>       0.58333333       0.33333333       0.58333333 </v>
   <v>       0.59027778       0.31944444       0.59027778 </v>
   <v>       0.59722222       0.30555556       0.59722222 </v>
   <v>       0.60416667       0.29166667       0.60416667 </v>
   <v>       0.61111111       0.27777778       0.61111111 </v>
   <v>       0.61805556       0.26388889       0.61805556 </v>
   <v>       0.62500000       0.25000000       0.62500000 </v>
   <v>       0.62500000       0.25000000       0.62500000 </v>
   <v>       0.61363636       0.25000000       0.63636364 </v>
   <v>       0.60227273       0.25000000       0.64772727 </v>
   <v>       0.59090909       0.25000000       0.65909091 </v>
   <v>       0.57954545       0.25000000       0.67045455 </v>
   <v>       0.56818182       0.25000000       0.68181818 </v>
   <v>       0.55681818       0.25000000       0.69318182 </v>
   <v>       0.54545455       0.25000000       0.70454545 </v>
   <v>       0.53409091       0.25000000       0.71590909 </v>
   <v>       0.52272727       0.25000000       0.72727273 </v>
   <v>       0.51136364       0.25000000       0.73863636 </v>
   <v>       0.50000000       0.25000000       0.75000000 </v>
   <v>       0.50000000       0.25000000       0.75000000 </v>
   <v>       0.50000000       0.26190476       0.73809524 </v>
   <v>       0.50000000       0.27380952       0.72619048 </v>
   <v>       0.50000000       0.28571429       0.71428571 </v>
   <v>       0.50000000       0.29761905       0.70238095 </v>
   <v>       0.50000000       0.30952381       0.69047619 </v>
   <v>       0.50000000       0.32142857       0.67857143 </v>
   <v>       0.50000000       0.33333333       0.66666667 </v>
   <v>       0.50000000       0.34523810       0.65476190 </v>
   <v>       0.50000000       0.35714286       0.64285714 </v>
   <v>       0.50000000       0.36904762       0.63095238 </v>
   <v>       0.50000000       0.38095238       0.61904762 </v>
   <v>       0.50000000       0.39285714       0.60714286 </v>
   <v>       0.50000000       0.40476190       0.59523810 </v>
   <v>       0.50000000       0.41666667       0.58333333 </v>
   <v>       0.50000000       0.42857143       0.57142857 </v>
   <v>       0.50000000       0.44047619       0.55952381 </v>
   <v>       0.50000000       0.45238095       0.54761905 </v>
   <v>       0.50000000       0.46428571       0.53571429 </v>
   <v>       0.50000000       0.47619048       0.52380952 </v>
   <v>       0.50000000       0.48809524       0.51190476 </v>
   <v>       0.50000000       0.50000000       0.50000000 </v>
   <v>       0.50000000       0.50000000       0.50000000 </v>
   <v>       0.49305556       0.49305556       0.51388889 </v>
   <v>       0.48611111       0.48611111       0.52777778 </v>
   <v>       0.47916667       0.47916667       0.54166667 </v>
   <v>       0.47222222       0.47222222       0.55555556 </v>
   <v>       0.46527778       0.46527778       0.56944444 </v>
   <v>       0.45833333       0.45833333       0.58333333 </v>
   <v>       0.45138889       0.45138889       0.59722222 </v>
   <v>       0.44444444       0.44444444       0.61111111 </v>
   <v>       0.43750000       0.43750000       0.62500000 </v>
   <v>       0.43055556       0.43055556       0.63888889 </v>
   <v>       0.42361111       0.42361111       0.65277778 </v>
   <v>       0.41666667       0.41666667       0.66666667 </v>
   <v>       0.40972222       0.40972222       0.68055556 </v>
   <v>       0.40277778       0.40277778       0.69444444 </v>
   <v>       0.39583333       0.39583333       0.70833333 </v>
   <v>       0.38888889       0.38888889       0.72222222 </v>
   <v>       0.38194444       0.38194444       0.73611111 </v>
   <v>       0.37500000       0.37500000       0.75000000 </v>
   <v>       0.62500000       0.25000000       0.62500000 </v>
   <v>       0.61363636       0.22727273       0.61363636 </v>
   <v>       0.60227273       0.20454545       0.60227273 </v>
   <v>       0.59090909       0.18181818       0.59090909 </v>
   <v>       0.57954545       0.15909091       0.57954545 </v>
   <v>       0.56818182       0.13636364       0.56818182 </v>
   <v>       0.55681818       0.11363636       0.55681818 </v>
   <v>       0.54545455       0.09090909       0.54545455 </v>
   <v>       0.53409091       0.06818182       0.53409091 </v>
   <v>       0.52272727       0.04545455       0.52272727 </v>
   <v>       0.51136364       0.02272727       0.51136364 </v>
   <v>       0.50000000       0.00000000       0.50000000 </v>
  </varray>
  <varray name="weights" >
   <v>       0.00500000 </v>
   <v>       0.00500000 </v>
   <v>       0.00500000 </v>
   <v>       0.00500000 </v>
   <v>       0.00500000 </v>
   <v>       0.00500000 </v>
   <v>       0.00500000 </v>
   <v>       0.00500000 </v>
   <v>       0.00500000 </v>
   <v>       0.00500000 </v>
   <v>       0.00500000 </v>
   <v>       0.00500000 </v>
   <v>       0.00500000 </v>
   <v>       0.00500000 </v>
   <v>       0.00500000 </v>
   <v>       0.00500000 </v>
   <v>       0.00500000 </v>
   <v>       0.00500000 </v>
   <v>       0.00500000 </v>
   <v>       0.00500000 </v>
   <v>       0.00500000 </v>
   <v>       0.00500000 </v>
   <v>       0.00500000 </v>
   <v>       0.00500000 </v>
   <v>       0.00500000 </v>
   <v>       0.00500000 </v>
   <v>       0.00500000 </v>
   <v>       0.00500000 </v>
   <v>       0.00500000 </v>
   <v>       0.00500000 </v>
   <v>       0.00500000 </v>
   <v>       0.00500000 </v>
   <v>       0.00500000 </v>
   <v>       0.00500000 </v>
   <v>       0.00500000 </v>
   <v>       0.00500000 </v>
   <v>       0.00500000 </v>
   <v>       0.00500000 </v>
   <v>       0.00500000 </v>
   <v>       0.00500000 </v>
   <v>       0.00500000 </v>
   <v>       0.00500000 </v>
   <v>       0.00500000 </v>
   <v>       0.00500000 </v>
   <v>       0.00500000 </v>
   <v>       0.00500000 </v>
   <v>       0.00500000 </v>
   <v>       0.00500000 </v>
   <v>       0.00500000 </v>
   <v>       0.00500000 </v>
   <v>       0.00500000 </v>
   <v>       0.00500000 </v>
   <v>       0.00500000 </v>
   <v>       0.00500000 </v>
   <v>       0.00500000 </v>
   <v>       0.00500000 </v>
   <v>       0.00500000 </v>
   <v>       0.00500000 </v>
   <v>       0.00500000 </v>
   <v>       0.00500000 </v>
   <v>       0.00500000 </v>
   <v>       0.00500000 </v>
   <v>       0.00500000 </v>
   <v>       0.00500000 </v>
   <v>       0.00500000 </v>
   <v>       0.00500000 </v>
   <v>       0.00500000 </v>
   <v>       0.00500000 </v>
   <v>       0.00500000 </v>
   <v>       0.00500000 </v>
   <v>       0.00500000 </v>
   <v>       0.00500000 </v>
   <v>       0.00500000 </v>
   <v>       0.00500000 </v>
   <v>       0.00500000 </v>
   <v>       0.00500000 </v>
   <v>       0.00500000 </v>
   <v>       0.00500000 </v>
   <v>       0.00500000 </v>
   <v>       0.00500000 </v>
   <v>       0.00500000 </v>
   <v>       0.00500000 </v>
   <v>       0.00500000 </v>
   <v>       0.00500000 </v>
   <v>       0.00500000 </v>
   <v>       0.00500000 </v>
   <v>       0.00500000 </v>
   <v>       0.00500000 </v>
   <v>       0.00500000 </v>
   <v>       0.00500000 </v>
   <v>       0.00500000 </v>
   <v>       0.00500000 </v>
   <v>       0.00500000 </v>
   <v>       0.00500000 </v>
   <v>       0.00500000 </v>
   <v>       0.00500000 </v>
   <v>       0.00500000 </v>
   <v>       0.00500000 </v>
   <v>       0.00500000 </v>
   <v>       0.00500000 </v>
   <v>       0.00500000 </v>
   <v>       0.00500000 </v>
   <v>       0.00500000 </v>
   <v>       0.00500000 </v>
   <v>       0.00500000 </v>
   <v>       0.00500000 </v>
   <v>       0.00500000 </v>
   <v>       0.00500000 </v>
   <v>       0.00500000 </v>
   <v>       0.00500000 </v>
   <v>       0.00500000 </v>
   <v>       0.00500000 </v>
   <v>       0.00500000 </v>
   <v>       0.00500000 </v>
   <v>       0.00500000 </v>
   <v>       0.00500000 </v>
   <v>       0.00500000 </v>
   <v>       0.00500000 </v>
   <v>       0.00500000 </v>
   <v>       0.00500000 </v>
   <v>       0.00500000 </v>
   <v>       0.00500000 </v>
   <v>       0.00500000 </v>
   <v>       0.00500000 </v>
   <v>       0.00500000 </v>
   <v>       0.00500000 </v>
   <v>       0.00500000 </v>
   <v>       0.00500000 </v>
   <v>       0.00500000 </v>
   <v>       0.00500000 </v>
   <v>       0.00500000 </v>
   <v>       0.00500000 </v>
   <v>       0.00500000 </v>
   <v>       0.00500000 </v>
   <v>       0.00500000 </v>
   <v>       0.00500000 </v>
   <v>       0.00500000 </v>
   <v>       0.00500000 </v>
   <v>       0.00500000 </v>
   <v>       0.00500000 </v>
   <v>       0.00500000 </v>
   <v>       0.00500000 </v>
   <v>       0.00500000 </v>
   <v>       0.00500000 </v>
   <v>       0.00500000 </v>
   <v>       0.00500000 </v>
   <v>       0.00500000 </v>
   <v>       0.00500000 </v>
   <v>       0.00500000 </v>
   <v>       0.00500000 </v>
   <v>       0.00500000 </v>
   <v>       0.00500000 </v>
   <v>       0.00500000 </v>
   <v>       0.00500000 </v>
   <v>       0.00500000 </v>
   <v>       0.00500000 </v>
   <v>       0.00500000 </v>
   <v>       0.00500000 </v>
   <v>       0.00500000 </v>
   <v>       0.00500000 </v>
   <v>       0.00500000 </v>
   <v>       0.00500000 </v>
   <v>       0.00500000 </v>
   <v>       0.00500000 </v>
   <v>       0.00500000 </v>
   <v>       0.00500000 </v>
   <v>       0.00500000 </v>
   <v>       0.00500000 </v>
   <v>       0.00500000 </v>
   <v>       0.00500000 </v>
   <v>       0.00500000 </v>
   <v>       0.00500000 </v>
   <v>       0.00500000 </v>
   <v>       0.00500000 </v>
   <v>       0.00500000 </v>
   <v>       0.00500000 </v>
   <v>       0.00500000 </v>
   <v>       0.00500000 </v>
   <v>       0.00500000 </v>
   <v>       0.00500000 </v>
   <v>       0.00500000 </v>
   <v>       0.00500000 </v>
   <v>       0.00500000 </v>
   <v>       0.00500000 </v>
   <v>       0.00500000 </v>
   <v>       0.00500000 </v>
   <v>       0.00500000 </v>
   <v>       0.00500000 </v>
   <v>       0.00500000 </v>
   <v>       0.00500000 </v>
   <v>       0.00500000 </v>
   <v>       0.00500000 </v>
   <v>       0.00500000 </v>
   <v>       0.00500000 </v>
   <v>       0.00500000 </v>
   <v>       0.00500000 </v>
   <v>       0.00500000 </v>
   <v>       0.00500000 </v>
   <v>       0.00500000 </v>
   <v>       0.00500000 </v>
  </varray>
 </kpoints>
 <parameters>
  <separator name="general" >
   <i type="string" name="SYSTEM">PbTe</i>
   <i type="logical" name="LCOMPAT"> F  </i>
  </separator>
  <separator name="electronic" >
   <i type="string" name="PREC">accura</i>
   <i name="ENMAX">    600.00000000</i>
   <i name="ENAUG">    391.91400000</i>
   <i name="EDIFF">      0.00000010</i>
   <i type="int" name="IALGO">    58</i>
   <i type="int" name="IWAVPR">    10</i>
   <i type="int" name="NBANDS">    28</i>
   <i name="NELECT">     20.00000000</i>
   <i type="int" name="TURBO">     0</i>
   <i type="int" name="IRESTART">     0</i>
   <i type="int" name="NREBOOT">     0</i>
   <i type="int" name="NMIN">     0</i>
   <i name="EREF">      0.00000000</i>
   <separator name="electronic smearing" >
    <i type="int" name="ISMEAR">     0</i>
    <i name="SIGMA">      0.01000000</i>
    <i name="KSPACING">      0.50000000</i>
    <i type="logical" name="KGAMMA"> T  </i>
   </separator>
   <separator name="electronic projectors" >
    <i type="logical" name="LREAL"> F  </i>
    <v name="ROPT">      0.00000000      0.00000000</v>
    <i type="int" name="LMAXPAW">  -100</i>
    <i type="int" name="LMAXMIX">     4</i>
    <i type="logical" name="NLSPLINE"> F  </i>
   </separator>
   <separator name="electronic startup" >
    <i type="int" name="ISTART">     0</i>
    <i type="int" name="ICHARG">    11</i>
    <i type="int" name="INIWAV">     1</i>
   </separator>
   <separator name="electronic spin" >
    <i type="int" name="ISPIN">     1</i>
    <i type="logical" name="LNONCOLLINEAR"> T  </i>
    <v name="MAGMOM">      1.00000000      1.00000000      1.00000000      1.00000000      1.00000000      1.00000000</v>
    <i name="NUPDOWN">     -1.00000000</i>
    <i type="logical" name="LSORBIT"> T  </i>
    <v name="SAXIS">      0.00000000      0.00000000      1.00000000</v>
    <i type="logical" name="LSPIRAL"> F  </i>
    <v name="QSPIRAL">      0.00000000      0.00000000      0.00000000</v>
    <i type="logical" name="LZEROZ"> F  </i>
   </separator>
   <separator name="electronic exchange-correlation" >
    <i type="logical" name="LASPH"> F  </i>
    <i type="logical" name="LMETAGGA"> F  </i>
   </separator>
   <separator name="electronic convergence" >
    <i type="int" name="NELM">    60</i>
    <i type="int" name="NELMDL">     0</i>
    <i type="int" name="NELMIN">     2</i>
    <i name="ENINI">    600.00000000</i>
    <separator name="electronic convergence detail" >
     <i type="logical" name="LDIAG"> T  </i>
     <i type="logical" name="LSUBROT"> F  </i>
     <i name="WEIMIN">      0.00000000</i>
     <i name="EBREAK">      0.00000000</i>
     <i name="DEPER">      0.30000000</i>
     <i type="int" name="NRMM">     4</i>
     <i name="TIME">      0.40000000</i>
    </separator>
   </separator>
   <separator name="electronic mixer" >
    <i name="AMIX">      0.40000000</i>
    <i name="BMIX">      1.00000000</i>
    <i name="AMIN">      0.10000000</i>
    <i name="AMIX_MAG">      1.60000000</i>
    <i name="BMIX_MAG">      1.00000000</i>
    <separator name="electronic mixer details" >
     <i type="int" name="IMIX">     4</i>
     <i type="logical" name="MIXFIRST"> F  </i>
     <i type="int" name="MAXMIX">   -45</i>
     <i name="WC">    100.00000000</i>
     <i type="int" name="INIMIX">     1</i>
     <i type="int" name="MIXPRE">     1</i>
     <i type="int" name="MREMOVE">     5</i>
    </separator>
   </separator>
   <separator name="electronic dipolcorrection" >
    <i type="logical" name="LDIPOL"> F  </i>
    <i type="logical" name="LMONO"> F  </i>
    <i type="int" name="IDIPOL">     0</i>
    <i name="EPSILON">      1.00000000</i>
    <v name="DIPOL">   -100.00000000   -100.00000000   -100.00000000</v>
    <i name="EFIELD">      0.00000000</i>
   </separator>
  </separator>
  <separator name="grids" >
   <i type="int" name="NGX">    40</i>
   <i type="int" name="NGY">    40</i>
   <i type="int" name="NGZ">    40</i>
   <i type="int" name="NGXF">    80</i>
   <i type="int" name="NGYF">    80</i>
   <i type="int" name="NGZF">    80</i>
   <i type="logical" name="ADDGRID"> T  </i>
  </separator>
  <separator name="ionic" >
   <i type="int" name="NSW">     0</i>
   <i type="int" name="IBRION">    -1</i>
   <i type="int" name="MDALGO">     0</i>
   <i type="int" name="ISIF">     2</i>
   <i name="PSTRESS">      0.00000000</i>
   <i name="EDIFFG">     -0.00100000</i>
   <i type="int" name="NFREE">     0</i>
   <i name="POTIM">      0.50000000</i>
   <i name="SMASS">     -3.00000000</i>
   <i name="SCALEE">      1.00000000</i>
  </separator>
  <separator name="ionic md" >
   <i name="TEBEG">      0.00010000</i>
   <i name="TEEND">      0.00010000</i>
   <i type="int" name="NBLOCK">     1</i>
   <i type="int" name="KBLOCK">     1</i>
   <i type="int" name="NPACO">   256</i>
   <i name="APACO">     16.00000000</i>
  </separator>
  <separator name="symmetry" >
   <i type="int" name="ISYM">    -1</i>
   <i name="SYMPREC">      0.00001000</i>
  </separator>
  <separator name="dos" >
   <i type="int" name="LORBIT">     0</i>
   <v name="RWIGS">     -1.00000000     -1.00000000</v>
   <i type="int" name="NEDOS">   301</i>
   <i name="EMIN">     10.00000000</i>
   <i name="EMAX">    -10.00000000</i>
   <i name="EFERMI">      0.00000000</i>
  </separator>
  <separator name="writing" >
   <i type="int" name="NWRITE">     2</i>
   <i type="logical" name="LWAVE"> F  </i>
   <i type="logical" name="LDOWNSAMPLE"> F  </i>
   <i type="logical" name="LCHARG"> F  </i>
   <i type="logical" name="LPARD"> F  </i>
   <i type="logical" name="LVTOT"> F  </i>
   <i type="logical" name="LVHAR"> F  </i>
   <i type="logical" name="LELF"> F  </i>
   <i type="logical" name="LOPTICS"> F  </i>
   <v name="STM">      0.00000000      0.00000000      0.00000000      0.00000000      0.00000000      0.00000000      0.00000000</v>
  </separator>
  <separator name="performance" >
   <i type="int" name="NPAR">     4</i>
   <i type="int" name="NSIM">     4</i>
   <i type="int" name="NBLK">    -1</i>
   <i type="logical" name="LPLANE"> T  </i>
   <i type="logical" name="LSCALAPACK"> T  </i>
   <i type="logical" name="LSCAAWARE"> F  </i>
   <i type="logical" name="LSCALU"> F  </i>
   <i type="logical" name="LASYNC"> F  </i>
   <i type="logical" name="LORBITALREAL"> F  </i>
  </separator>
  <separator name="miscellaneous" >
   <i type="int" name="IDIOT">     3</i>
   <i type="int" name="ISPECIAL">     0</i>
   <i type="logical" name="LMUSIC"> F  </i>
   <v name="POMASS">    127.60000000    207.20000000</v>
   <v name="DARWINR">      0.00000000      0.00000000</v>
   <v name="DARWINV">      1.00000000      1.00000000</v>
   <i type="logical" name="LCORR"> T  </i>
  </separator>
  <i type="logical" name="GGA_COMPAT"> F  </i>
  <i type="logical" name="LBERRY"> F  </i>
  <i type="int" name="ICORELEVEL">     0</i>
  <i type="logical" name="LDAU"> F  </i>
  <i type="int" name="I_CONSTRAINED_M">     0</i>
  <separator name="electronic exchange-correlation" >
   <i type="string" name="GGA">--</i>
   <i type="int" name="VOSKOWN">     0</i>
   <i type="logical" name="LHFCALC"> F  </i>
   <i type="string" name="PRECFOCK"></i>
   <i type="logical" name="LSYMGRAD"> F  </i>
   <i type="logical" name="LHFONE"> F  </i>
   <i type="logical" name="LRHFCALC"> F  </i>
   <i type="logical" name="LTHOMAS"> F  </i>
   <i type="logical" name="LMODELHF"> F  </i>
   <i name="ENCUT4O">     -1.00000000</i>
   <i type="int" name="EXXOEP">     0</i>
   <i type="int" name="FOURORBIT">     0</i>
   <i name="AEXX">      0.00000000</i>
   <i name="HFALPHA">      0.00000000</i>
   <i name="MCALPHA">      0.00000000</i>
   <i name="ALDAX">      1.00000000</i>
   <i name="AGGAX">      1.00000000</i>
   <i name="ALDAC">      1.00000000</i>
   <i name="AGGAC">      1.00000000</i>
   <i type="int" name="NKREDX">     1</i>
   <i type="int" name="NKREDY">     1</i>
   <i type="int" name="NKREDZ">     1</i>
   <i type="logical" name="SHIFTRED"> F  </i>
   <i type="logical" name="ODDONLY"> F  </i>
   <i type="logical" name="EVENONLY"> F  </i>
   <i type="int" name="LMAXFOCK">     0</i>
   <i type="int" name="NMAXFOCKAE">     0</i>
   <i type="logical" name="LFOCKAEDFT"> F  </i>
   <i name="HFSCREEN">      0.00000000</i>
   <i name="HFSCREENC">      0.00000000</i>
   <i type="int" name="NBANDSGWLOW">     0</i>
  </separator>
  <separator name="vdW DFT" >
   <i type="logical" name="LUSE_VDW"> F  </i>
   <i name="Zab_VDW">     -0.84910000</i>
   <i name="PARAM1">      0.12340000</i>
   <i name="PARAM2">      1.00000000</i>
   <i name="PARAM3">      0.00000000</i>
  </separator>
  <separator name="model GW" >
   <i type="int" name="MODEL_GW">     0</i>
   <i name="MODEL_EPS0">     21.38393525</i>
   <i name="MODEL_ALPHA">      1.00000000</i>
  </separator>
  <separator name="linear response parameters" >
   <i type="logical" name="LEPSILON"> F  </i>
   <i type="logical" name="LRPA"> F  </i>
   <i type="logical" name="LNABLA"> F  </i>
   <i type="logical" name="LVEL"> F  </i>
   <i type="int" name="KINTER">     0</i>
   <i name="CSHIFT">      0.10000000</i>
   <i name="OMEGAMAX">     -1.00000000</i>
   <i name="DEG_THRESHOLD">      0.00200000</i>
   <i name="RTIME">     -0.10000000</i>
   <i name="WPLASMAI">      0.00000000</i>
   <v name="DFIELD">      0.00000000      0.00000000      0.00000000</v>
   <v name="WPLASMA">      0.00000000      0.00000000      0.00000000      0.00000000      0.00000000      0.00000000      0.00000000      0.00000000      0.00000000</v>
  </separator>
  <separator name="orbital magnetization" >
   <i type="logical" name="NUCIND"> F  </i>
   <v name="MAGPOS">      0.00000000      0.00000000      0.00000000</v>
   <i type="logical" name="LNICSALL"> T  </i>
   <i type="logical" name="ORBITALMAG"> F  </i>
   <i type="logical" name="LMAGBLOCH"> F  </i>
   <i type="logical" name="LCHIMAG"> F  </i>
   <i type="logical" name="LGAUGE"> T  </i>
   <i type="int" name="MAGATOM">     0</i>
   <v name="MAGDIPOL">      0.00000000      0.00000000      0.00000000</v>
   <v name="AVECCONST">      0.00000000      0.00000000      0.00000000</v>
  </separator>
  <separator name="response functions" >
   <i type="logical" name="LADDER"> F  </i>
   <i type="logical" name="LRPAFORCE"> F  </i>
   <i type="logical" name="LFXC"> F  </i>
   <i type="logical" name="LHARTREE"> T  </i>
   <i type="int" name="IBSE">     0</i>
   <v type="int" name="KPOINT">    -1     0     0     0</v>
   <i type="logical" name="LTCTE"> F  </i>
   <i type="logical" name="LTETE"> F  </i>
   <i type="logical" name="LTRIPLET"> F  </i>
   <i type="logical" name="LFXCEPS"> F  </i>
   <i type="logical" name="LFXHEG"> F  </i>
   <i type="int" name="NATURALO">     2</i>
   <i type="logical" name="L2ORDER"> F  </i>
   <i type="logical" name="LMP2LT"> F  </i>
   <i type="logical" name="LUSEW"> F  </i>
   <i name="ENCUTGW">     -2.00000000</i>
   <i name="ENCUTGWSOFT">     -2.00000000</i>
   <i name="ENCUTLF">     -1.00000000</i>
   <i type="int" name="LMAXMP2">    -1</i>
   <i name="SCISSOR">      0.00000000</i>
   <i type="int" name="NOMEGA">     0</i>
   <i type="int" name="NOMEGAR">     0</i>
   <i type="int" name="NBANDSGW">    -1</i>
   <i type="int" name="NBANDSO">    -1</i>
   <i type="int" name="NBANDSV">    -1</i>
   <i type="int" name="NELM">     1</i>
   <i type="int" name="NELMHF">     1</i>
   <i type="int" name="DIM">     3</i>
   <i type="int" name="ANTIRES">     0</i>
   <i name="OMEGAMAX">    -30.00000000</i>
   <i name="OMEGAMIN">    -30.00000000</i>
   <i name="OMEGATL">   -200.00000000</i>
   <i type="int" name="OMEGAGRID">   140</i>
   <i name="CSHIFT">     -0.10000000</i>
   <i type="logical" name="SELFENERGY"> F  </i>
   <i type="logical" name="LSPECTRAL"> F  </i>
   <i type="logical" name="LSPECTRALGW"> F  </i>
   <i type="logical" name="LSINGLES"> F  </i>
   <i type="logical" name="LFERMIGW"> F  </i>
   <i type="logical" name="ODDONLYGW"> F  </i>
   <i type="logical" name="EVENONLYGW"> F  </i>
   <i type="int" name="NKREDLFX">     1</i>
   <i type="int" name="NKREDLFY">     1</i>
   <i type="int" name="NKREDLFZ">     1</i>
   <i type="int" name="MAXMEM">  2800</i>
   <i type="int" name="TELESCOPE">     0</i>
   <i type="int" name="TAUPAR">     1</i>
   <i type="int" name="OMEGAPAR">    -1</i>
   <i name="LAMBDA">      1.00000000</i>
  </separator>
  <separator name="External order field" >
   <i name="OFIELD_KAPPA">      0.00000000</i>
   <v name="OFIELD_K">      0.00000000      0.00000000      0.00000000</v>
   <i name="OFIELD_Q6_NEAR">      0.00000000</i>
   <i name="OFIELD_Q6_FAR">      0.00000000</i>
   <i name="OFIELD_A">      0.00000000</i>
  </separator>
 </parameters>
 <atominfo>
  <atoms>       2 </atoms>
  <types>       2 </types>
  <array name="atoms" >
   <dimension dim="1">ion</dimension>
   <field type="string">element</field>
   <field type="int">atomtype</field>
   <set>
    <rc><c>Te</c><c>   1</c></rc>
    <rc><c>Pb</c><c>   2</c></rc>
   </set>
  </array>
  <array name="atomtypes" >
   <dimension dim="1">type</dimension>
   <field type="int">atomspertype</field>
   <field type="string">element</field>
   <field>mass</field>
   <field>valence</field>
   <field type="string">pseudopotential</field>
   <set>
    <rc><c>   1</c><c>Te</c><c>    127.60000000</c><c>      6.00000000</c><c>  PAW_PBE Te 08Apr2002                  </c></rc>
    <rc><c>   1</c><c>Pb</c><c>    207.20000000</c><c>     14.00000000</c><c>  PAW_PBE Pb_d 06Sep2000                </c></rc>
   </set>
  </array>
 </atominfo>
 <structure name="initialpos" >
  <crystal>
   <varray name="basis" >
    <v>       0.00000000       3.29088061       3.29088061 </v>
    <v>       3.29088061       0.00000000       3.29088061 </v>
    <v>       3.29088061       3.29088061       0.00000000 </v>
   </varray>
   <i name="volume">     71.27978417 </i>
   <varray name="rec_basis" >
    <v>      -0.15193502       0.15193502       0.15193502 </v>
    <v>       0.15193502      -0.15193502       0.15193502 </v>
    <v>       0.15193502       0.15193502      -0.15193502 </v>
   </varray>
  </crystal>
  <varray name="positions" >
   <v>       0.00000000       0.00000000       0.00000000 </v>
   <v>       0.50000000       0.50000000       0.50000000 </v>
  </varray>
 </structure>
 <calculation>
  <scstep>
   <time name="total">   20.10   20.25</time>
   <energy>
    <i name="alphaZ">     34.09677339 </i>
    <i name="ewald">  -1363.85407897 </i>
    <i name="hartreedc">   -514.79387646 </i>
    <i name="XCdc">      9.69271452 </i>
    <i name="pawpsdc">   1873.93652555 </i>
    <i name="pawaedc">  -1818.62012337 </i>
    <i name="eentropy">     -0.00004834 </i>
    <i name="bandstr">     93.84057150 </i>
    <i name="atom">   1884.88874340 </i>
    <i name="e_fr_energy">    199.18720123 </i>
    <i name="e_wo_entrp">    199.18724957 </i>
    <i name="e_0_energy">    199.18722540 </i>
   </energy>
  </scstep>
  <scstep>
   <time name="total">   19.46   19.47</time>
   <energy>
    <i name="e_fr_energy">     12.14193995 </i>
    <i name="e_wo_entrp">     12.14199786 </i>
    <i name="e_0_energy">     12.14196890 </i>
   </energy>
  </scstep>
  <scstep>
   <time name="total">   22.95   23.00</time>
   <energy>
    <i name="e_fr_energy">     -7.05003917 </i>
    <i name="e_wo_entrp">     -7.05001355 </i>
    <i name="e_0_energy">     -7.05002636 </i>
   </energy>
  </scstep>
  <scstep>
   <time name="total">   22.23   22.26</time>
   <energy>
    <i name="e_fr_energy">     -7.90916305 </i>
    <i name="e_wo_entrp">     -7.90916305 </i>
    <i name="e_0_energy">     -7.90916305 </i>
   </energy>
  </scstep>
  <scstep>
   <time name="total">   24.37   24.42</time>
   <energy>
    <i name="e_fr_energy">     -7.94641455 </i>
    <i name="e_wo_entrp">     -7.94641455 </i>
    <i name="e_0_energy">     -7.94641455 </i>
   </energy>
  </scstep>
  <scstep>
   <time name="total">   15.25   15.27</time>
   <energy>
    <i name="e_fr_energy">     -7.94641455 </i>
    <i name="e_wo_entrp">     -7.94641455 </i>
    <i name="e_0_energy">     -7.94641455 </i>
   </energy>
  </scstep>
  <scstep>
   <time name="total">   14.67   14.71</time>
   <energy>
    <i name="e_fr_energy">     -7.94690469 </i>
    <i name="e_wo_entrp">     -7.94690469 </i>
    <i name="e_0_energy">     -7.94690469 </i>
   </energy>
  </scstep>
  <scstep>
   <time name="total">   15.27   15.29</time>
   <energy>
    <i name="e_fr_energy">     -7.94709913 </i>
    <i name="e_wo_entrp">     -7.94709913 </i>
    <i name="e_0_energy">     -7.94709913 </i>
   </energy>
  </scstep>
  <scstep>
   <time name="total">   15.23   15.26</time>
   <energy>
    <i name="e_fr_energy">     -7.94716472 </i>
    <i name="e_wo_entrp">     -7.94716472 </i>
    <i name="e_0_energy">     -7.94716472 </i>
   </energy>
  </scstep>
  <scstep>
   <time name="total">   15.21   15.23</time>
   <energy>
    <i name="e_fr_energy">     -7.94718556 </i>
    <i name="e_wo_entrp">     -7.94718556 </i>
    <i name="e_0_energy">     -7.94718556 </i>
   </energy>
  </scstep>
  <scstep>
   <time name="total">   15.17   15.35</time>
   <energy>
    <i name="e_fr_energy">     -7.94719007 </i>
    <i name="e_wo_entrp">     -7.94719007 </i>
    <i name="e_0_energy">     -7.94719007 </i>
   </energy>
  </scstep>
  <scstep>
   <time name="total">   15.25   15.26</time>
   <energy>
    <i name="e_fr_energy">     -7.94719124 </i>
    <i name="e_wo_entrp">     -7.94719124 </i>
    <i name="e_0_energy">     -7.94719124 </i>
   </energy>
  </scstep>
  <scstep>
   <time name="total">   14.42   14.49</time>
   <energy>
    <i name="e_fr_energy">     -7.94719157 </i>
    <i name="e_wo_entrp">     -7.94719157 </i>
    <i name="e_0_energy">     -7.94719157 </i>
   </energy>
  </scstep>
  <scstep>
   <time name="total">   19.49   19.52</time>
   <energy>
    <i name="alphaZ">     34.09677339 </i>
    <i name="ewald">  -1363.85407897 </i>
    <i name="hartreedc">   -514.79387646 </i>
    <i name="XCdc">      9.69271452 </i>
    <i name="pawpsdc">   1873.93652555 </i>
    <i name="pawaedc">  -1818.62012337 </i>
    <i name="eentropy">     -0.00000000 </i>
    <i name="bandstr">   -113.29386972 </i>
    <i name="atom">   1884.88874340 </i>
    <i name="e_fr_energy">     -7.94719165 </i>
    <i name="e_wo_entrp">     -7.94719165 </i>
    <i name="e_0_energy">     -7.94719165 </i>
   </energy>
  </scstep>
  <structure>
   <crystal>
    <varray name="basis" >
     <v>       0.00000000       3.29088061       3.29088061 </v>
     <v>       3.29088061       0.00000000       3.29088061 </v>
     <v>       3.29088061       3.29088061       0.00000000 </v>
    </varray>
    <i name="volume">     71.27978417 </i>
    <varray name="rec_basis" >
     <v>      -0.15193502       0.15193502       0.15193502 </v>
     <v>       0.15193502      -0.15193502       0.15193502 </v>
     <v>       0.15193502       0.15193502      -0.15193502 </v>
    </varray>
   </crystal>
   <varray name="positions" >
    <v>       0.00000000       0.00000000       0.00000000 </v>
    <v>       0.50000000       0.50000000       0.50000000 </v>
   </varray>
  </structure>
  <varray name="forces" >
   <v>       0.00000004       0.00000122       0.00000083 </v>
   <v>      -0.00000004      -0.00000122      -0.00000083 </v>
  </varray>
  <varray name="stress" >
   <v>     117.49159860     -54.40566218     -42.82430089 </v>
   <v>     -54.40566613     -40.29135052     -25.89308489 </v>
   <v>     -42.82430323     -25.89308908     -53.12604724 </v>
  </varray>
  <energy>
   <i name="e_fr_energy">     -7.94719165 </i>
   <i name="e_wo_entrp">     -7.94719165 </i>
   <i name="e_0_energy">     -0.00000000 </i>
  </energy>
  <time name="totalsc">  272.40  273.15</time>
  <eigenvalues>
   <array>
    <dimension dim="1">band</dimension>
    <dimension dim="2">kpoint</dimension>
    <dimension dim="3">spin</dimension>
    <field>eigene</field>
    <field>occ</field>
    <set>
     <set comment="spin 1">
      <set comment="kpoint 1">
       <r>  -13.1322    1.0000 </r>
       <r>  -13.1322    1.0000 </r>
       <r>  -13.1322    1.0000 </r>
       <r>  -13.1322    1.0000 </r>
       <r>  -10.5759    1.0000 </r>
       <r>  -10.5759    1.0000 </r>
       <r>  -10.5759    1.0000 </r>
       <r>  -10.5759    1.0000 </r>
       <r>  -10.5695    1.0000 </r>
       <r>  -10.5695    1.0000 </r>
       <r>   -6.6580    1.0000 </r>
       <r>   -6.6580    1.0000 </r>
       <r>   -0.7614    1.0000 </r>
       <r>   -0.7614    1.0000 </r>
       <r>    3.0498    1.0000 </r>
       <r>    3.0498    1.0000 </r>
       <r>    4.0833    1.0000 </r>
       <r>    4.0833    1.0000 </r>
       <r>    4.0833    1.0000 </r>
       <r>    4.0833    1.0000 </r>
       <r>    7.6071    0.0000 </r>
       <r>    7.6071    0.0000 </r>
       <r>    9.5535    0.0000 </r>
       <r>    9.5535    0.0000 </r>
       <r>    9.5536    0.0000 </r>
       <r>    9.5538    0.0000 </r>
       <r>   10.8213    0.0000 </r>
       <r>   10.8306    0.0000 </r>
      </set>
      <set comment="kpoint 2">
       <r>  -13.1322    1.0000 </r>
       <r>  -13.1322    1.0000 </r>
       <r>  -13.1322    1.0000 </r>
       <r>  -13.1322    1.0000 </r>
       <r>  -10.5760    1.0000 </r>
       <r>  -10.5760    1.0000 </r>
       <r>  -10.5759    1.0000 </r>
       <r>  -10.5759    1.0000 </r>
       <r>  -10.5694    1.0000 </r>
       <r>  -10.5694    1.0000 </r>
       <r>   -6.6549    1.0000 </r>
       <r>   -6.6548    1.0000 </r>
       <r>   -0.7714    1.0000 </r>
       <r>   -0.7714    1.0000 </r>
       <r>    3.0529    1.0000 </r>
       <r>    3.0529    1.0000 </r>
       <r>    4.0782    1.0000 </r>
       <r>    4.0782    1.0000 </r>
       <r>    4.0927    1.0000 </r>
       <r>    4.0927    1.0000 </r>
       <r>    7.5942    0.0000 </r>
       <r>    7.5942    0.0000 </r>
       <r>    9.5069    0.0000 </r>
       <r>    9.5076    0.0000 </r>
       <r>    9.5510    0.0000 </r>
       <r>    9.5510    0.0000 </r>
       <r>   10.8167    0.0000 </r>
       <r>   10.8339    0.0000 </r>
      </set>
      <set comment="kpoint 3">
       <r>  -13.1321    1.0000 </r>
       <r>  -13.1321    1.0000 </r>
       <r>  -13.1321    1.0000 </r>
       <r>  -13.1321    1.0000 </r>
       <r>  -10.5761    1.0000 </r>
       <r>  -10.5761    1.0000 </r>
       <r>  -10.5758    1.0000 </r>
       <r>  -10.5758    1.0000 </r>
       <r>  -10.5693    1.0000 </r>
       <r>  -10.5693    1.0000 </r>
       <r>   -6.6455    1.0000 </r>
       <r>   -6.6455    1.0000 </r>
       <r>   -0.8008    1.0000 </r>
       <r>   -0.8008    1.0000 </r>
       <r>    3.0607    1.0000 </r>
       <r>    3.0607    1.0000 </r>
       <r>    4.0630    1.0000 </r>
       <r>    4.0630    1.0000 </r>
       <r>    4.1216    1.0000 </r>
       <r>    4.1216    1.0000 </r>
       <r>    7.5539    0.0000 </r>
       <r>    7.5539    0.0000 </r>
       <r>    9.3826    0.0000 </r>
       <r>    9.3826    0.0000 </r>
       <r>    9.5444    0.0000 </r>
       <r>    9.5445    0.0000 </r>
       <r>   10.7537    0.0000 </r>
       <r>   10.8000    0.0000 </r>
      </set>
      <set comment="kpoint 4">
       <r>  -13.1321    1.0000 </r>
       <r>  -13.1321    1.0000 </r>
       <r>  -13.1321    1.0000 </r>
       <r>  -13.1321    1.0000 </r>
       <r>  -10.5763    1.0000 </r>
       <r>  -10.5763    1.0000 </r>
       <r>  -10.5757    1.0000 </r>
       <r>  -10.5757    1.0000 </r>
       <r>  -10.5691    1.0000 </r>
       <r>  -10.5691    1.0000 </r>
       <r>   -6.6299    1.0000 </r>
       <r>   -6.6299    1.0000 </r>
       <r>   -0.8479    1.0000 </r>
       <r>   -0.8479    1.0000 </r>
       <r>    3.0694    1.0000 </r>
       <r>    3.0694    1.0000 </r>
       <r>    4.0381    1.0000 </r>
       <r>    4.0381    1.0000 </r>
       <r>    4.1715    1.0000 </r>
       <r>    4.1715    1.0000 </r>
       <r>    7.4823    0.0000 </r>
       <r>    7.4823    0.0000 </r>
       <r>    9.2159    0.0000 </r>
       <r>    9.2159    0.0000 </r>
       <r>    9.5359    0.0000 </r>
       <r>    9.5359    0.0000 </r>
       <r>   10.6533    0.0000 </r>
       <r>   10.6851    0.0000 </r>
      </set>
      <set comment="kpoint 5">
       <r>  -13.1321    1.0000 </r>
       <r>  -13.1321    1.0000 </r>
       <r>  -13.1320    1.0000 </r>
       <r>  -13.1320    1.0000 </r>
       <r>  -10.5766    1.0000 </r>
       <r>  -10.5766    1.0000 </r>
       <r>  -10.5756    1.0000 </r>
       <r>  -10.5756    1.0000 </r>
       <r>  -10.5688    1.0000 </r>
       <r>  -10.5688    1.0000 </r>
       <r>   -6.6081    1.0000 </r>
       <r>   -6.6081    1.0000 </r>
       <r>   -0.9103    1.0000 </r>
       <r>   -0.9103    1.0000 </r>
       <r>    3.0739    1.0000 </r>
       <r>    3.0739    1.0000 </r>
       <r>    4.0040    1.0000 </r>
       <r>    4.0040    1.0000 </r>
       <r>    4.2435    1.0000 </r>
       <r>    4.2435    1.0000 </r>
       <r>    7.3741    0.0000 </r>
       <r>    7.3741    0.0000 </r>
       <r>    9.0431    0.0000 </r>
       <r>    9.0431    0.0000 </r>
       <r>    9.5285    0.0000 </r>
       <r>    9.5286    0.0000 </r>
       <r>   10.5337    0.0000 </r>
       <r>   10.5477    0.0000 </r>
      </set>
      <set comment="kpoint 6">
       <r>  -13.1321    1.0000 </r>
       <r>  -13.1321    1.0000 </r>
       <r>  -13.1319    1.0000 </r>
       <r>  -13.1319    1.0000 </r>
       <r>  -10.5770    1.0000 </r>
       <r>  -10.5770    1.0000 </r>
       <r>  -10.5755    1.0000 </r>
       <r>  -10.5755    1.0000 </r>
       <r>  -10.5685    1.0000 </r>
       <r>  -10.5685    1.0000 </r>
       <r>   -6.5802    1.0000 </r>
       <r>   -6.5802    1.0000 </r>
       <r>   -0.9851    1.0000 </r>
       <r>   -0.9851    1.0000 </r>
       <r>    3.0700    1.0000 </r>
       <r>    3.0700    1.0000 </r>
       <r>    3.9614    1.0000 </r>
       <r>    3.9614    1.0000 </r>
       <r>    4.3362    1.0000 </r>
       <r>    4.3362    1.0000 </r>
       <r>    7.2272    0.0000 </r>
       <r>    7.2272    0.0000 </r>
       <r>    8.8912    0.0000 </r>
       <r>    8.8912    0.0000 </r>
       <r>    9.5251    0.0000 </r>
       <r>    9.5252    0.0000 </r>
       <r>   10.4026    0.0000 </r>
       <r>   10.4054    0.0000 </r>
      </set>
      <set comment="kpoint 7">
       <r>  -13.1321    1.0000 </r>
       <r>  -13.1321    1.0000 </r>
       <r>  -13.1318    1.0000 </r>
       <r>  -13.1318    1.0000 </r>
       <r>  -10.5776    1.0000 </r>
       <r>  -10.5776    1.0000 </r>
       <r>  -10.5753    1.0000 </r>
       <r>  -10.5753    1.0000 </r>
       <r>  -10.5680    1.0000 </r>
       <r>  -10.5680    1.0000 </r>
       <r>   -6.5463    1.0000 </r>
       <r>   -6.5463    1.0000 </r>
       <r>   -1.0694    1.0000 </r>
       <r>   -1.0694    1.0000 </r>
       <r>    3.0553    1.0000 </r>
       <r>    3.0553    1.0000 </r>
       <r>    3.9112    1.0000 </r>
       <r>    3.9112    1.0000 </r>
       <r>    4.4440    1.0000 </r>
       <r>    4.4440    1.0000 </r>
       <r>    7.0475    0.0000 </r>
       <r>    7.0475    0.0000 </r>
       <r>    8.7747    0.0000 </r>
       <r>    8.7747    0.0000 </r>
       <r>    9.5278    0.0000 </r>
       <r>    9.5278    0.0000 </r>
       <r>   10.2646    0.0000 </r>
       <r>   10.2656    0.0000 </r>
      </set>
      <set comment="kpoint 8">
       <r>  -13.1321    1.0000 </r>
       <r>  -13.1321    1.0000 </r>
       <r>  -13.1317    1.0000 </r>
       <r>  -13.1317    1.0000 </r>
       <r>  -10.5782    1.0000 </r>
       <r>  -10.5782    1.0000 </r>
       <r>  -10.5752    1.0000 </r>
       <r>  -10.5752    1.0000 </r>
       <r>  -10.5675    1.0000 </r>
       <r>  -10.5675    1.0000 </r>
       <r>   -6.5065    1.0000 </r>
       <r>   -6.5065    1.0000 </r>
       <r>   -1.1602    1.0000 </r>
       <r>   -1.1602    1.0000 </r>
       <r>    3.0294    1.0000 </r>
       <r>    3.0294    1.0000 </r>
       <r>    3.8544    1.0000 </r>
       <r>    3.8544    1.0000 </r>
       <r>    4.5548    1.0000 </r>
       <r>    4.5548    1.0000 </r>
       <r>    6.8521    0.0000 </r>
       <r>    6.8521    0.0000 </r>
       <r>    8.6959    0.0000 </r>
       <r>    8.6959    0.0000 </r>
       <r>    9.5382    0.0000 </r>
       <r>    9.5382    0.0000 </r>
       <r>   10.1259    0.0000 </r>
       <r>   10.1261    0.0000 </r>
      </set>
      <set comment="kpoint 9">
       <r>  -13.1322    1.0000 </r>
       <r>  -13.1322    1.0000 </r>
       <r>  -13.1315    1.0000 </r>
       <r>  -13.1315    1.0000 </r>
       <r>  -10.5790    1.0000 </r>
       <r>  -10.5790    1.0000 </r>
       <r>  -10.5751    1.0000 </r>
       <r>  -10.5751    1.0000 </r>
       <r>  -10.5668    1.0000 </r>
       <r>  -10.5668    1.0000 </r>
       <r>   -6.4609    1.0000 </r>
       <r>   -6.4609    1.0000 </r>
       <r>   -1.2550    1.0000 </r>
       <r>   -1.2550    1.0000 </r>
       <r>    2.9930    1.0000 </r>
       <r>    2.9930    1.0000 </r>
       <r>    3.7919    1.0000 </r>
       <r>    3.7919    1.0000 </r>
       <r>    4.6481    1.0000 </r>
       <r>    4.6481    1.0000 </r>
       <r>    6.6697    0.0000 </r>
       <r>    6.6697    0.0000 </r>
       <r>    8.6507    0.0000 </r>
       <r>    8.6507    0.0000 </r>
       <r>    9.5570    0.0000 </r>
       <r>    9.5570    0.0000 </r>
       <r>    9.9886    0.0000 </r>
       <r>    9.9886    0.0000 </r>
      </set>
      <set comment="kpoint 10">
       <r>  -13.1322    1.0000 </r>
       <r>  -13.1322    1.0000 </r>
       <r>  -13.1314    1.0000 </r>
       <r>  -13.1314    1.0000 </r>
       <r>  -10.5799    1.0000 </r>
       <r>  -10.5799    1.0000 </r>
       <r>  -10.5749    1.0000 </r>
       <r>  -10.5749    1.0000 </r>
       <r>  -10.5661    1.0000 </r>
       <r>  -10.5661    1.0000 </r>
       <r>   -6.4098    1.0000 </r>
       <r>   -6.4098    1.0000 </r>
       <r>   -1.3515    1.0000 </r>
       <r>   -1.3515    1.0000 </r>
       <r>    2.9478    1.0000 </r>
       <r>    2.9478    1.0000 </r>
       <r>    3.7250    1.0000 </r>
       <r>    3.7250    1.0000 </r>
       <r>    4.6930    1.0000 </r>
       <r>    4.6930    1.0000 </r>
       <r>    6.5386    0.0000 </r>
       <r>    6.5386    0.0000 </r>
       <r>    8.6326    0.0000 </r>
       <r>    8.6326    0.0000 </r>
       <r>    9.5847    0.0000 </r>
       <r>    9.5847    0.0000 </r>
       <r>    9.8543    0.0000 </r>
       <r>    9.8543    0.0000 </r>
      </set>
      <set comment="kpoint 11">
       <r>  -13.1322    1.0000 </r>
       <r>  -13.1322    1.0000 </r>
       <r>  -13.1312    1.0000 </r>
       <r>  -13.1312    1.0000 </r>
       <r>  -10.5810    1.0000 </r>
       <r>  -10.5810    1.0000 </r>
       <r>  -10.5748    1.0000 </r>
       <r>  -10.5748    1.0000 </r>
       <r>  -10.5652    1.0000 </r>
       <r>  -10.5652    1.0000 </r>
       <r>   -6.3533    1.0000 </r>
       <r>   -6.3533    1.0000 </r>
       <r>   -1.4478    1.0000 </r>
       <r>   -1.4478    1.0000 </r>
       <r>    2.8956    1.0000 </r>
       <r>    2.8956    1.0000 </r>
       <r>    3.6546    1.0000 </r>
       <r>    3.6546    1.0000 </r>
       <r>    4.6564    1.0000 </r>
       <r>    4.6564    1.0000 </r>
       <r>    6.4971    0.0000 </r>
       <r>    6.4971    0.0000 </r>
       <r>    8.6362    0.0000 </r>
       <r>    8.6362    0.0000 </r>
       <r>    9.6211    0.0000 </r>
       <r>    9.6211    0.0000 </r>
       <r>    9.7245    0.0000 </r>
       <r>    9.7245    0.0000 </r>
      </set>
      <set comment="kpoint 12">
       <r>  -13.1323    1.0000 </r>
       <r>  -13.1323    1.0000 </r>
       <r>  -13.1311    1.0000 </r>
       <r>  -13.1311    1.0000 </r>
       <r>  -10.5821    1.0000 </r>
       <r>  -10.5821    1.0000 </r>
       <r>  -10.5747    1.0000 </r>
       <r>  -10.5747    1.0000 </r>
       <r>  -10.5643    1.0000 </r>
       <r>  -10.5643    1.0000 </r>
       <r>   -6.2917    1.0000 </r>
       <r>   -6.2917    1.0000 </r>
       <r>   -1.5422    1.0000 </r>
       <r>   -1.5422    1.0000 </r>
       <r>    2.8381    1.0000 </r>
       <r>    2.8381    1.0000 </r>
       <r>    3.5819    1.0000 </r>
       <r>    3.5819    1.0000 </r>
       <r>    4.5263    1.0000 </r>
       <r>    4.5263    1.0000 </r>
       <r>    6.5608    0.0000 </r>
       <r>    6.5608    0.0000 </r>
       <r>    8.6572    0.0000 </r>
       <r>    8.6572    0.0000 </r>
       <r>    9.5970    0.0000 </r>
       <r>    9.5970    0.0000 </r>
       <r>    9.6689    0.0000 </r>
       <r>    9.6689    0.0000 </r>
      </set>
      <set comment="kpoint 13">
       <r>  -13.1324    1.0000 </r>
       <r>  -13.1324    1.0000 </r>
       <r>  -13.1309    1.0000 </r>
       <r>  -13.1309    1.0000 </r>
       <r>  -10.5835    1.0000 </r>
       <r>  -10.5835    1.0000 </r>
       <r>  -10.5747    1.0000 </r>
       <r>  -10.5747    1.0000 </r>
       <r>  -10.5633    1.0000 </r>
       <r>  -10.5633    1.0000 </r>
       <r>   -6.2255    1.0000 </r>
       <r>   -6.2255    1.0000 </r>
       <r>   -1.6334    1.0000 </r>
       <r>   -1.6334    1.0000 </r>
       <r>    2.7769    1.0000 </r>
       <r>    2.7769    1.0000 </r>
       <r>    3.5077    1.0000 </r>
       <r>    3.5077    1.0000 </r>
       <r>    4.3206    1.0000 </r>
       <r>    4.3206    1.0000 </r>
       <r>    6.7137    0.0000 </r>
       <r>    6.7137    0.0000 </r>
       <r>    8.6927    0.0000 </r>
       <r>    8.6927    0.0000 </r>
       <r>    9.4782    0.0000 </r>
       <r>    9.4782    0.0000 </r>
       <r>    9.7221    0.0000 </r>
       <r>    9.7221    0.0000 </r>
      </set>
      <set comment="kpoint 14">
       <r>  -13.1325    1.0000 </r>
       <r>  -13.1325    1.0000 </r>
       <r>  -13.1307    1.0000 </r>
       <r>  -13.1307    1.0000 </r>
       <r>  -10.5849    1.0000 </r>
       <r>  -10.5849    1.0000 </r>
       <r>  -10.5746    1.0000 </r>
       <r>  -10.5746    1.0000 </r>
       <r>  -10.5623    1.0000 </r>
       <r>  -10.5623    1.0000 </r>
       <r>   -6.1551    1.0000 </r>
       <r>   -6.1551    1.0000 </r>
       <r>   -1.7202    1.0000 </r>
       <r>   -1.7202    1.0000 </r>
       <r>    2.7134    1.0000 </r>
       <r>    2.7134    1.0000 </r>
       <r>    3.4332    1.0000 </r>
       <r>    3.4332    1.0000 </r>
       <r>    4.0673    1.0000 </r>
       <r>    4.0673    1.0000 </r>
       <r>    6.9282    0.0000 </r>
       <r>    6.9282    0.0000 </r>
       <r>    8.7409    0.0000 </r>
       <r>    8.7409    0.0000 </r>
       <r>    9.3645    0.0000 </r>
       <r>    9.3645    0.0000 </r>
       <r>    9.7837    0.0000 </r>
       <r>    9.7837    0.0000 </r>
      </set>
      <set comment="kpoint 15">
       <r>  -13.1326    1.0000 </r>
       <r>  -13.1326    1.0000 </r>
       <r>  -13.1305    1.0000 </r>
       <r>  -13.1305    1.0000 </r>
       <r>  -10.5865    1.0000 </r>
       <r>  -10.5865    1.0000 </r>
       <r>  -10.5746    1.0000 </r>
       <r>  -10.5746    1.0000 </r>
       <r>  -10.5612    1.0000 </r>
       <r>  -10.5612    1.0000 </r>
       <r>   -6.0809    1.0000 </r>
       <r>   -6.0809    1.0000 </r>
       <r>   -1.8018    1.0000 </r>
       <r>   -1.8018    1.0000 </r>
       <r>    2.6489    1.0000 </r>
       <r>    2.6489    1.0000 </r>
       <r>    3.3591    1.0000 </r>
       <r>    3.3591    1.0000 </r>
       <r>    3.7883    1.0000 </r>
       <r>    3.7883    1.0000 </r>
       <r>    7.1822    0.0000 </r>
       <r>    7.1822    0.0000 </r>
       <r>    8.8008    0.0000 </r>
       <r>    8.8008    0.0000 </r>
       <r>    9.2569    0.0000 </r>
       <r>    9.2569    0.0000 </r>
       <r>    9.8524    0.0000 </r>
       <r>    9.8524    0.0000 </r>
      </set>
      <set comment="kpoint 16">
       <r>  -13.1328    1.0000 </r>
       <r>  -13.1328    1.0000 </r>
       <r>  -13.1303    1.0000 </r>
       <r>  -13.1303    1.0000 </r>
       <r>  -10.5882    1.0000 </r>
       <r>  -10.5882    1.0000 </r>
       <r>  -10.5745    1.0000 </r>
       <r>  -10.5745    1.0000 </r>
       <r>  -10.5601    1.0000 </r>
       <r>  -10.5601    1.0000 </r>
       <r>   -6.0036    1.0000 </r>
       <r>   -6.0036    1.0000 </r>
       <r>   -1.8772    1.0000 </r>
       <r>   -1.8772    1.0000 </r>
       <r>    2.5844    1.0000 </r>
       <r>    2.5844    1.0000 </r>
       <r>    3.2864    1.0000 </r>
       <r>    3.2864    1.0000 </r>
       <r>    3.4976    1.0000 </r>
       <r>    3.4976    1.0000 </r>
       <r>    7.4599    0.0000 </r>
       <r>    7.4599    0.0000 </r>
       <r>    8.8723    0.0000 </r>
       <r>    8.8723    0.0000 </r>
       <r>    9.1557    0.0000 </r>
       <r>    9.1557    0.0000 </r>
       <r>    9.9272    0.0000 </r>
       <r>    9.9272    0.0000 </r>
      </set>
      <set comment="kpoint 17">
       <r>  -13.1330    1.0000 </r>
       <r>  -13.1330    1.0000 </r>
       <r>  -13.1301    1.0000 </r>
       <r>  -13.1301    1.0000 </r>
       <r>  -10.5899    1.0000 </r>
       <r>  -10.5899    1.0000 </r>
       <r>  -10.5745    1.0000 </r>
       <r>  -10.5745    1.0000 </r>
       <r>  -10.5590    1.0000 </r>
       <r>  -10.5590    1.0000 </r>
       <r>   -5.9239    1.0000 </r>
       <r>   -5.9239    1.0000 </r>
       <r>   -1.9458    1.0000 </r>
       <r>   -1.9458    1.0000 </r>
       <r>    2.5209    1.0000 </r>
       <r>    2.5209    1.0000 </r>
       <r>    3.2041    1.0000 </r>
       <r>    3.2041    1.0000 </r>
       <r>    3.2157    1.0000 </r>
       <r>    3.2157    1.0000 </r>
       <r>    7.7495    0.0000 </r>
       <r>    7.7495    0.0000 </r>
       <r>    8.9567    0.0000 </r>
       <r>    8.9567    0.0000 </r>
       <r>    9.0612    0.0000 </r>
       <r>    9.0612    0.0000 </r>
       <r>   10.0072    0.0000 </r>
       <r>   10.0072    0.0000 </r>
      </set>
      <set comment="kpoint 18">
       <r>  -13.1331    1.0000 </r>
       <r>  -13.1331    1.0000 </r>
       <r>  -13.1299    1.0000 </r>
       <r>  -13.1299    1.0000 </r>
       <r>  -10.5917    1.0000 </r>
       <r>  -10.5917    1.0000 </r>
       <r>  -10.5745    1.0000 </r>
       <r>  -10.5745    1.0000 </r>
       <r>  -10.5579    1.0000 </r>
       <r>  -10.5579    1.0000 </r>
       <r>   -5.8428    1.0000 </r>
       <r>   -5.8428    1.0000 </r>
       <r>   -2.0072    1.0000 </r>
       <r>   -2.0072    1.0000 </r>
       <r>    2.4592    1.0000 </r>
       <r>    2.4592    1.0000 </r>
       <r>    2.9135    1.0000 </r>
       <r>    2.9135    1.0000 </r>
       <r>    3.1478    1.0000 </r>
       <r>    3.1478    1.0000 </r>
       <r>    8.0399    0.0000 </r>
       <r>    8.0399    0.0000 </r>
       <r>    8.9733    0.0000 </r>
       <r>    8.9733    0.0000 </r>
       <r>    9.0578    0.0000 </r>
       <r>    9.0578    0.0000 </r>
       <r>   10.0912    0.0000 </r>
       <r>   10.0912    0.0000 </r>
      </set>
      <set comment="kpoint 19">
       <r>  -13.1333    1.0000 </r>
       <r>  -13.1333    1.0000 </r>
       <r>  -13.1298    1.0000 </r>
       <r>  -13.1298    1.0000 </r>
       <r>  -10.5935    1.0000 </r>
       <r>  -10.5935    1.0000 </r>
       <r>  -10.5745    1.0000 </r>
       <r>  -10.5745    1.0000 </r>
       <r>  -10.5568    1.0000 </r>
       <r>  -10.5568    1.0000 </r>
       <r>   -5.7610    1.0000 </r>
       <r>   -5.7610    1.0000 </r>
       <r>   -2.0609    1.0000 </r>
       <r>   -2.0609    1.0000 </r>
       <r>    2.4001    1.0000 </r>
       <r>    2.4001    1.0000 </r>
       <r>    2.6299    1.0000 </r>
       <r>    2.6299    1.0000 </r>
       <r>    3.0832    1.0000 </r>
       <r>    3.0832    1.0000 </r>
       <r>    8.3170    0.0000 </r>
       <r>    8.3170    0.0000 </r>
       <r>    8.8923    0.0000 </r>
       <r>    8.8923    0.0000 </r>
       <r>    9.1832    0.0000 </r>
       <r>    9.1832    0.0000 </r>
       <r>   10.1779    0.0000 </r>
       <r>   10.1779    0.0000 </r>
      </set>
      <set comment="kpoint 20">
       <r>  -13.1335    1.0000 </r>
       <r>  -13.1335    1.0000 </r>
       <r>  -13.1296    1.0000 </r>
       <r>  -13.1296    1.0000 </r>
       <r>  -10.5953    1.0000 </r>
       <r>  -10.5953    1.0000 </r>
       <r>  -10.5745    1.0000 </r>
       <r>  -10.5744    1.0000 </r>
       <r>  -10.5558    1.0000 </r>
       <r>  -10.5558    1.0000 </r>
       <r>   -5.6798    1.0000 </r>
       <r>   -5.6798    1.0000 </r>
       <r>   -2.1066    1.0000 </r>
       <r>   -2.1066    1.0000 </r>
       <r>    2.3434    1.0000 </r>
       <r>    2.3434    1.0000 </r>
       <r>    2.3576    1.0000 </r>
       <r>    2.3576    1.0000 </r>
       <r>    3.0226    1.0000 </r>
       <r>    3.0226    1.0000 </r>
       <r>    8.5635    0.0000 </r>
       <r>    8.5635    0.0000 </r>
       <r>    8.8182    0.0000 </r>
       <r>    8.8182    0.0000 </r>
       <r>    9.3445    0.0000 </r>
       <r>    9.3445    0.0000 </r>
       <r>   10.2660    0.0000 </r>
       <r>   10.2660    0.0000 </r>
      </set>
      <set comment="kpoint 21">
       <r>  -13.1337    1.0000 </r>
       <r>  -13.1337    1.0000 </r>
       <r>  -13.1294    1.0000 </r>
       <r>  -13.1294    1.0000 </r>
       <r>  -10.5971    1.0000 </r>
       <r>  -10.5971    1.0000 </r>
       <r>  -10.5744    1.0000 </r>
       <r>  -10.5744    1.0000 </r>
       <r>  -10.5548    1.0000 </r>
       <r>  -10.5548    1.0000 </r>
       <r>   -5.6004    1.0000 </r>
       <r>   -5.6004    1.0000 </r>
       <r>   -2.1441    1.0000 </r>
       <r>   -2.1441    1.0000 </r>
       <r>    2.0964    1.0000 </r>
       <r>    2.0965    1.0000 </r>
       <r>    2.2924    1.0000 </r>
       <r>    2.2924    1.0000 </r>
       <r>    2.9663    1.0000 </r>
       <r>    2.9663    1.0000 </r>
       <r>    8.7510    0.0000 </r>
       <r>    8.7510    0.0000 </r>
       <r>    8.7640    0.0000 </r>
       <r>    8.7640    0.0000 </r>
       <r>    9.5514    0.0000 </r>
       <r>    9.5514    0.0000 </r>
       <r>   10.3540    0.0000 </r>
       <r>   10.3540    0.0000 </r>
      </set>
      <set comment="kpoint 22">
       <r>  -13.1339    1.0000 </r>
       <r>  -13.1339    1.0000 </r>
       <r>  -13.1292    1.0000 </r>
       <r>  -13.1292    1.0000 </r>
       <r>  -10.5988    1.0000 </r>
       <r>  -10.5988    1.0000 </r>
       <r>  -10.5744    1.0000 </r>
       <r>  -10.5744    1.0000 </r>
       <r>  -10.5538    1.0000 </r>
       <r>  -10.5538    1.0000 </r>
       <r>   -5.5240    1.0000 </r>
       <r>   -5.5240    1.0000 </r>
       <r>   -2.1737    1.0000 </r>
       <r>   -2.1737    1.0000 </r>
       <r>    1.8521    1.0000 </r>
       <r>    1.8521    1.0000 </r>
       <r>    2.2446    1.0000 </r>
       <r>    2.2446    1.0000 </r>
       <r>    2.9149    1.0000 </r>
       <r>    2.9149    1.0000 </r>
       <r>    8.6908    0.0000 </r>
       <r>    8.6908    0.0000 </r>
       <r>    8.9173    0.0000 </r>
       <r>    8.9173    0.0000 </r>
       <r>    9.7992    0.0000 </r>
       <r>    9.7992    0.0000 </r>
       <r>   10.4403    0.0000 </r>
       <r>   10.4403    0.0000 </r>
      </set>
      <set comment="kpoint 23">
       <r>  -13.1341    1.0000 </r>
       <r>  -13.1341    1.0000 </r>
       <r>  -13.1291    1.0000 </r>
       <r>  -13.1291    1.0000 </r>
       <r>  -10.6004    1.0000 </r>
       <r>  -10.6004    1.0000 </r>
       <r>  -10.5744    1.0000 </r>
       <r>  -10.5744    1.0000 </r>
       <r>  -10.5530    1.0000 </r>
       <r>  -10.5530    1.0000 </r>
       <r>   -5.4521    1.0000 </r>
       <r>   -5.4521    1.0000 </r>
       <r>   -2.1955    1.0000 </r>
       <r>   -2.1955    1.0000 </r>
       <r>    1.6262    1.0000 </r>
       <r>    1.6262    1.0000 </r>
       <r>    2.2016    1.0000 </r>
       <r>    2.2016    1.0000 </r>
       <r>    2.8687    1.0000 </r>
       <r>    2.8687    1.0000 </r>
       <r>    8.6376    0.0000 </r>
       <r>    8.6377    0.0000 </r>
       <r>    9.0341    0.0000 </r>
       <r>    9.0341    0.0000 </r>
       <r>   10.0703    0.0000 </r>
       <r>   10.0703    0.0000 </r>
       <r>   10.5229    0.0000 </r>
       <r>   10.5229    0.0000 </r>
      </set>
      <set comment="kpoint 24">
       <r>  -13.1343    1.0000 </r>
       <r>  -13.1343    1.0000 </r>
       <r>  -13.1290    1.0000 </r>
       <r>  -13.1290    1.0000 </r>
       <r>  -10.6018    1.0000 </r>
       <r>  -10.6018    1.0000 </r>
       <r>  -10.5744    1.0000 </r>
       <r>  -10.5744    1.0000 </r>
       <r>  -10.5522    1.0000 </r>
       <r>  -10.5522    1.0000 </r>
       <r>   -5.3861    1.0000 </r>
       <r>   -5.3861    1.0000 </r>
       <r>   -2.2102    1.0000 </r>
       <r>   -2.2102    1.0000 </r>
       <r>    1.4214    1.0000 </r>
       <r>    1.4214    1.0000 </r>
       <r>    2.1636    1.0000 </r>
       <r>    2.1636    1.0000 </r>
       <r>    2.8280    1.0000 </r>
       <r>    2.8280    1.0000 </r>
       <r>    8.5915    0.0000 </r>
       <r>    8.5915    0.0000 </r>
       <r>    9.1260    0.0000 </r>
       <r>    9.1261    0.0000 </r>
       <r>   10.3457    0.0000 </r>
       <r>   10.3457    0.0000 </r>
       <r>   10.6002    0.0000 </r>
       <r>   10.6002    0.0000 </r>
      </set>
      <set comment="kpoint 25">
       <r>  -13.1345    1.0000 </r>
       <r>  -13.1345    1.0000 </r>
       <r>  -13.1289    1.0000 </r>
       <r>  -13.1289    1.0000 </r>
       <r>  -10.6031    1.0000 </r>
       <r>  -10.6031    1.0000 </r>
       <r>  -10.5744    1.0000 </r>
       <r>  -10.5744    1.0000 </r>
       <r>  -10.5515    1.0000 </r>
       <r>  -10.5515    1.0000 </r>
       <r>   -5.3273    1.0000 </r>
       <r>   -5.3273    1.0000 </r>
       <r>   -2.2188    1.0000 </r>
       <r>   -2.2188    1.0000 </r>
       <r>    1.2405    1.0000 </r>
       <r>    1.2405    1.0000 </r>
       <r>    2.1309    1.0000 </r>
       <r>    2.1309    1.0000 </r>
       <r>    2.7931    1.0000 </r>
       <r>    2.7931    1.0000 </r>
       <r>    8.5525    0.0000 </r>
       <r>    8.5525    0.0000 </r>
       <r>    9.1999    0.0000 </r>
       <r>    9.1999    0.0000 </r>
       <r>   10.6099    0.0000 </r>
       <r>   10.6099    0.0000 </r>
       <r>   10.6701    0.0000 </r>
       <r>   10.6701    0.0000 </r>
      </set>
      <set comment="kpoint 26">
       <r>  -13.1346    1.0000 </r>
       <r>  -13.1346    1.0000 </r>
       <r>  -13.1288    1.0000 </r>
       <r>  -13.1288    1.0000 </r>
       <r>  -10.6042    1.0000 </r>
       <r>  -10.6042    1.0000 </r>
       <r>  -10.5744    1.0000 </r>
       <r>  -10.5744    1.0000 </r>
       <r>  -10.5510    1.0000 </r>
       <r>  -10.5510    1.0000 </r>
       <r>   -5.2772    1.0000 </r>
       <r>   -5.2772    1.0000 </r>
       <r>   -2.2225    1.0000 </r>
       <r>   -2.2225    1.0000 </r>
       <r>    1.0867    1.0000 </r>
       <r>    1.0867    1.0000 </r>
       <r>    2.1039    1.0000 </r>
       <r>    2.1039    1.0000 </r>
       <r>    2.7643    1.0000 </r>
       <r>    2.7643    1.0000 </r>
       <r>    8.5205    0.0000 </r>
       <r>    8.5205    0.0000 </r>
       <r>    9.2589    0.0000 </r>
       <r>    9.2589    0.0000 </r>
       <r>   10.7306    0.0000 </r>
       <r>   10.7306    0.0000 </r>
       <r>   10.8497    0.0000 </r>
       <r>   10.8497    0.0000 </r>
      </set>
      <set comment="kpoint 27">
       <r>  -13.1347    1.0000 </r>
       <r>  -13.1347    1.0000 </r>
       <r>  -13.1287    1.0000 </r>
       <r>  -13.1287    1.0000 </r>
       <r>  -10.6051    1.0000 </r>
       <r>  -10.6051    1.0000 </r>
       <r>  -10.5744    1.0000 </r>
       <r>  -10.5744    1.0000 </r>
       <r>  -10.5505    1.0000 </r>
       <r>  -10.5505    1.0000 </r>
       <r>   -5.2369    1.0000 </r>
       <r>   -5.2369    1.0000 </r>
       <r>   -2.2228    1.0000 </r>
       <r>   -2.2228    1.0000 </r>
       <r>    0.9630    1.0000 </r>
       <r>    0.9630    1.0000 </r>
       <r>    2.0827    1.0000 </r>
       <r>    2.0827    1.0000 </r>
       <r>    2.7417    1.0000 </r>
       <r>    2.7417    1.0000 </r>
       <r>    8.4956    0.0000 </r>
       <r>    8.4956    0.0000 </r>
       <r>    9.3045    0.0000 </r>
       <r>    9.3045    0.0000 </r>
       <r>   10.7800    0.0000 </r>
       <r>   10.7800    0.0000 </r>
       <r>   11.0530    0.0000 </r>
       <r>   11.0530    0.0000 </r>
      </set>
      <set comment="kpoint 28">
       <r>  -13.1348    1.0000 </r>
       <r>  -13.1348    1.0000 </r>
       <r>  -13.1287    1.0000 </r>
       <r>  -13.1287    1.0000 </r>
       <r>  -10.6057    1.0000 </r>
       <r>  -10.6057    1.0000 </r>
       <r>  -10.5744    1.0000 </r>
       <r>  -10.5744    1.0000 </r>
       <r>  -10.5502    1.0000 </r>
       <r>  -10.5502    1.0000 </r>
       <r>   -5.2073    1.0000 </r>
       <r>   -5.2073    1.0000 </r>
       <r>   -2.2215    1.0000 </r>
       <r>   -2.2215    1.0000 </r>
       <r>    0.8721    1.0000 </r>
       <r>    0.8721    1.0000 </r>
       <r>    2.0674    1.0000 </r>
       <r>    2.0674    1.0000 </r>
       <r>    2.7254    1.0000 </r>
       <r>    2.7255    1.0000 </r>
       <r>    8.4779    0.0000 </r>
       <r>    8.4779    0.0000 </r>
       <r>    9.3371    0.0000 </r>
       <r>    9.3371    0.0000 </r>
       <r>   10.8166    0.0000 </r>
       <r>   10.8166    0.0000 </r>
       <r>   11.2085    0.0000 </r>
       <r>   11.2085    0.0000 </r>
      </set>
      <set comment="kpoint 29">
       <r>  -13.1349    1.0000 </r>
       <r>  -13.1349    1.0000 </r>
       <r>  -13.1286    1.0000 </r>
       <r>  -13.1286    1.0000 </r>
       <r>  -10.6061    1.0000 </r>
       <r>  -10.6061    1.0000 </r>
       <r>  -10.5744    1.0000 </r>
       <r>  -10.5744    1.0000 </r>
       <r>  -10.5500    1.0000 </r>
       <r>  -10.5500    1.0000 </r>
       <r>   -5.1893    1.0000 </r>
       <r>   -5.1893    1.0000 </r>
       <r>   -2.2200    1.0000 </r>
       <r>   -2.2200    1.0000 </r>
       <r>    0.8165    1.0000 </r>
       <r>    0.8165    1.0000 </r>
       <r>    2.0582    1.0000 </r>
       <r>    2.0582    1.0000 </r>
       <r>    2.7157    1.0000 </r>
       <r>    2.7157    1.0000 </r>
       <r>    8.4672    0.0000 </r>
       <r>    8.4672    0.0000 </r>
       <r>    9.3567    0.0000 </r>
       <r>    9.3567    0.0000 </r>
       <r>   10.8391    0.0000 </r>
       <r>   10.8391    0.0000 </r>
       <r>   11.3063    0.0000 </r>
       <r>   11.3064    0.0000 </r>
      </set>
      <set comment="kpoint 30">
       <r>  -13.1349    1.0000 </r>
       <r>  -13.1349    1.0000 </r>
       <r>  -13.1286    1.0000 </r>
       <r>  -13.1286    1.0000 </r>
       <r>  -10.6062    1.0000 </r>
       <r>  -10.6062    1.0000 </r>
       <r>  -10.5744    1.0000 </r>
       <r>  -10.5744    1.0000 </r>
       <r>  -10.5499    1.0000 </r>
       <r>  -10.5499    1.0000 </r>
       <r>   -5.1832    1.0000 </r>
       <r>   -5.1832    1.0000 </r>
       <r>   -2.2194    1.0000 </r>
       <r>   -2.2194    1.0000 </r>
       <r>    0.7978    1.0000 </r>
       <r>    0.7978    1.0000 </r>
       <r>    2.0551    1.0000 </r>
       <r>    2.0551    1.0000 </r>
       <r>    2.7124    1.0000 </r>
       <r>    2.7124    1.0000 </r>
       <r>    8.4637    0.0000 </r>
       <r>    8.4637    0.0000 </r>
       <r>    9.3633    0.0000 </r>
       <r>    9.3633    0.0000 </r>
       <r>   10.8467    0.0000 </r>
       <r>   10.8467    0.0000 </r>
       <r>   11.3398    0.0000 </r>
       <r>   11.3398    0.0000 </r>
      </set>
      <set comment="kpoint 31">
       <r>  -13.1349    1.0000 </r>
       <r>  -13.1349    1.0000 </r>
       <r>  -13.1286    1.0000 </r>
       <r>  -13.1286    1.0000 </r>
       <r>  -10.6062    1.0000 </r>
       <r>  -10.6062    1.0000 </r>
       <r>  -10.5744    1.0000 </r>
       <r>  -10.5744    1.0000 </r>
       <r>  -10.5499    1.0000 </r>
       <r>  -10.5499    1.0000 </r>
       <r>   -5.1832    1.0000 </r>
       <r>   -5.1832    1.0000 </r>
       <r>   -2.2194    1.0000 </r>
       <r>   -2.2194    1.0000 </r>
       <r>    0.7978    1.0000 </r>
       <r>    0.7978    1.0000 </r>
       <r>    2.0551    1.0000 </r>
       <r>    2.0551    1.0000 </r>
       <r>    2.7124    1.0000 </r>
       <r>    2.7124    1.0000 </r>
       <r>    8.4637    0.0000 </r>
       <r>    8.4637    0.0000 </r>
       <r>    9.3633    0.0000 </r>
       <r>    9.3633    0.0000 </r>
       <r>   10.8467    0.0000 </r>
       <r>   10.8467    0.0000 </r>
       <r>   11.3398    0.0000 </r>
       <r>   11.3398    0.0000 </r>
      </set>
      <set comment="kpoint 32">
       <r>  -13.1349    1.0000 </r>
       <r>  -13.1349    1.0000 </r>
       <r>  -13.1286    1.0000 </r>
       <r>  -13.1286    1.0000 </r>
       <r>  -10.6061    1.0000 </r>
       <r>  -10.6061    1.0000 </r>
       <r>  -10.5744    1.0000 </r>
       <r>  -10.5744    1.0000 </r>
       <r>  -10.5500    1.0000 </r>
       <r>  -10.5500    1.0000 </r>
       <r>   -5.1820    1.0000 </r>
       <r>   -5.1820    1.0000 </r>
       <r>   -2.2265    1.0000 </r>
       <r>   -2.2265    1.0000 </r>
       <r>    0.8010    1.0000 </r>
       <r>    0.8010    1.0000 </r>
       <r>    2.0607    1.0000 </r>
       <r>    2.0607    1.0000 </r>
       <r>    2.7177    1.0000 </r>
       <r>    2.7177    1.0000 </r>
       <r>    8.4743    0.0000 </r>
       <r>    8.4743    0.0000 </r>
       <r>    9.3485    0.0000 </r>
       <r>    9.3485    0.0000 </r>
       <r>   10.8245    0.0000 </r>
       <r>   10.8245    0.0000 </r>
       <r>   11.3327    0.0000 </r>
       <r>   11.3327    0.0000 </r>
      </set>
      <set comment="kpoint 33">
       <r>  -13.1348    1.0000 </r>
       <r>  -13.1348    1.0000 </r>
       <r>  -13.1286    1.0000 </r>
       <r>  -13.1286    1.0000 </r>
       <r>  -10.6059    1.0000 </r>
       <r>  -10.6059    1.0000 </r>
       <r>  -10.5744    1.0000 </r>
       <r>  -10.5744    1.0000 </r>
       <r>  -10.5501    1.0000 </r>
       <r>  -10.5501    1.0000 </r>
       <r>   -5.1783    1.0000 </r>
       <r>   -5.1783    1.0000 </r>
       <r>   -2.2476    1.0000 </r>
       <r>   -2.2476    1.0000 </r>
       <r>    0.8106    1.0000 </r>
       <r>    0.8106    1.0000 </r>
       <r>    2.0749    1.0000 </r>
       <r>    2.0749    1.0000 </r>
       <r>    2.7360    1.0000 </r>
       <r>    2.7360    1.0000 </r>
       <r>    8.5057    0.0000 </r>
       <r>    8.5057    0.0000 </r>
       <r>    9.3018    0.0000 </r>
       <r>    9.3018    0.0000 </r>
       <r>   10.7649    0.0000 </r>
       <r>   10.7649    0.0000 </r>
       <r>   11.3122    0.0000 </r>
       <r>   11.3122    0.0000 </r>
      </set>
      <set comment="kpoint 34">
       <r>  -13.1348    1.0000 </r>
       <r>  -13.1348    1.0000 </r>
       <r>  -13.1287    1.0000 </r>
       <r>  -13.1287    1.0000 </r>
       <r>  -10.6055    1.0000 </r>
       <r>  -10.6055    1.0000 </r>
       <r>  -10.5744    1.0000 </r>
       <r>  -10.5744    1.0000 </r>
       <r>  -10.5504    1.0000 </r>
       <r>  -10.5504    1.0000 </r>
       <r>   -5.1724    1.0000 </r>
       <r>   -5.1724    1.0000 </r>
       <r>   -2.2811    1.0000 </r>
       <r>   -2.2811    1.0000 </r>
       <r>    0.8266    1.0000 </r>
       <r>    0.8266    1.0000 </r>
       <r>    2.0904    1.0000 </r>
       <r>    2.0904    1.0000 </r>
       <r>    2.7735    1.0000 </r>
       <r>    2.7735    1.0000 </r>
       <r>    8.5564    0.0000 </r>
       <r>    8.5564    0.0000 </r>
       <r>    9.2177    0.0000 </r>
       <r>    9.2177    0.0000 </r>
       <r>   10.6862    0.0000 </r>
       <r>   10.6862    0.0000 </r>
       <r>   11.2797    0.0000 </r>
       <r>   11.2797    0.0000 </r>
      </set>
      <set comment="kpoint 35">
       <r>  -13.1347    1.0000 </r>
       <r>  -13.1347    1.0000 </r>
       <r>  -13.1287    1.0000 </r>
       <r>  -13.1287    1.0000 </r>
       <r>  -10.6049    1.0000 </r>
       <r>  -10.6049    1.0000 </r>
       <r>  -10.5744    1.0000 </r>
       <r>  -10.5744    1.0000 </r>
       <r>  -10.5507    1.0000 </r>
       <r>  -10.5507    1.0000 </r>
       <r>   -5.1643    1.0000 </r>
       <r>   -5.1643    1.0000 </r>
       <r>   -2.3252    1.0000 </r>
       <r>   -2.3252    1.0000 </r>
       <r>    0.8489    1.0000 </r>
       <r>    0.8489    1.0000 </r>
       <r>    2.0980    1.0000 </r>
       <r>    2.0980    1.0000 </r>
       <r>    2.8382    1.0000 </r>
       <r>    2.8382    1.0000 </r>
       <r>    8.6222    0.0000 </r>
       <r>    8.6222    0.0000 </r>
       <r>    9.0920    0.0000 </r>
       <r>    9.0920    0.0000 </r>
       <r>   10.6107    0.0000 </r>
       <r>   10.6107    0.0000 </r>
       <r>   11.2369    0.0000 </r>
       <r>   11.2369    0.0000 </r>
      </set>
      <set comment="kpoint 36">
       <r>  -13.1345    1.0000 </r>
       <r>  -13.1345    1.0000 </r>
       <r>  -13.1288    1.0000 </r>
       <r>  -13.1288    1.0000 </r>
       <r>  -10.6042    1.0000 </r>
       <r>  -10.6042    1.0000 </r>
       <r>  -10.5744    1.0000 </r>
       <r>  -10.5744    1.0000 </r>
       <r>  -10.5511    1.0000 </r>
       <r>  -10.5511    1.0000 </r>
       <r>   -5.1543    1.0000 </r>
       <r>   -5.1543    1.0000 </r>
       <r>   -2.3772    1.0000 </r>
       <r>   -2.3772    1.0000 </r>
       <r>    0.8774    1.0000 </r>
       <r>    0.8774    1.0000 </r>
       <r>    2.0903    1.0000 </r>
       <r>    2.0903    1.0000 </r>
       <r>    2.9359    1.0000 </r>
       <r>    2.9359    1.0000 </r>
       <r>    8.6835    0.0000 </r>
       <r>    8.6835    0.0000 </r>
       <r>    8.9400    0.0000 </r>
       <r>    8.9400    0.0000 </r>
       <r>   10.5556    0.0000 </r>
       <r>   10.5556    0.0000 </r>
       <r>   11.1850    0.0000 </r>
       <r>   11.1850    0.0000 </r>
      </set>
      <set comment="kpoint 37">
       <r>  -13.1344    1.0000 </r>
       <r>  -13.1344    1.0000 </r>
       <r>  -13.1288    1.0000 </r>
       <r>  -13.1288    1.0000 </r>
       <r>  -10.6034    1.0000 </r>
       <r>  -10.6034    1.0000 </r>
       <r>  -10.5744    1.0000 </r>
       <r>  -10.5744    1.0000 </r>
       <r>  -10.5516    1.0000 </r>
       <r>  -10.5516    1.0000 </r>
       <r>   -5.1429    1.0000 </r>
       <r>   -5.1429    1.0000 </r>
       <r>   -2.4345    1.0000 </r>
       <r>   -2.4345    1.0000 </r>
       <r>    0.9119    1.0000 </r>
       <r>    0.9120    1.0000 </r>
       <r>    2.0650    1.0000 </r>
       <r>    2.0650    1.0000 </r>
       <r>    3.0670    1.0000 </r>
       <r>    3.0670    1.0000 </r>
       <r>    8.6107    0.0000 </r>
       <r>    8.6108    0.0000 </r>
       <r>    8.8941    0.0000 </r>
       <r>    8.8941    0.0000 </r>
       <r>   10.5284    0.0000 </r>
       <r>   10.5285    0.0000 </r>
       <r>   11.1260    0.0000 </r>
       <r>   11.1264    0.0000 </r>
      </set>
      <set comment="kpoint 38">
       <r>  -13.1342    1.0000 </r>
       <r>  -13.1342    1.0000 </r>
       <r>  -13.1289    1.0000 </r>
       <r>  -13.1289    1.0000 </r>
       <r>  -10.6026    1.0000 </r>
       <r>  -10.6026    1.0000 </r>
[...]
       <r>     6.4573     0.0000     0.0000 </r>
       <r>     6.5561     0.0000     0.0000 </r>
       <r>     6.6548     0.0000     0.0000 </r>
       <r>     6.7536     0.0000     0.0000 </r>
       <r>     6.8524     0.0000     0.0000 </r>
       <r>     6.9511     0.0000     0.0000 </r>
       <r>     7.0499     0.0000     0.0000 </r>
       <r>     7.1487     0.0000     0.0000 </r>
       <r>     7.2474     0.0000     0.0000 </r>
       <r>     7.3462     0.0000     0.0000 </r>
       <r>     7.4450     0.0000     0.0000 </r>
       <r>     7.5438     0.0000     0.0000 </r>
       <r>     7.6425     0.0000     0.0000 </r>
       <r>     7.7413     0.0000     0.0000 </r>
       <r>     7.8401     0.0000     0.0000 </r>
       <r>     7.9388     0.0000     0.0000 </r>
       <r>     8.0376     0.0000     0.0000 </r>
       <r>     8.1364     0.0000     0.0000 </r>
       <r>     8.2351     0.0000     0.0000 </r>
       <r>     8.3339     0.0000     0.0000 </r>
       <r>     8.4327     0.0000     0.0000 </r>
       <r>     8.5314     0.0000     0.0000 </r>
       <r>     8.6302     0.0000     0.0000 </r>
       <r>     8.7290     0.0000     0.0000 </r>
       <r>     8.8278     0.0000     0.0000 </r>
       <r>     8.9265     0.0000     0.0000 </r>
       <r>     9.0253     0.0000     0.0000 </r>
       <r>     9.1241     0.0000     0.0000 </r>
       <r>     9.2228     0.0000     0.0000 </r>
       <r>     9.3216     0.0000     0.0000 </r>
       <r>     9.4204     0.0000     0.0000 </r>
       <r>     9.5191     0.0000     0.0000 </r>
       <r>     9.6179     0.0000     0.0000 </r>
       <r>     9.7167     0.0000     0.0000 </r>
       <r>     9.8154     0.0000     0.0000 </r>
       <r>     9.9142     0.0000     0.0000 </r>
       <r>    10.0130     0.0000     0.0000 </r>
       <r>    10.1118     0.0000     0.0000 </r>
       <r>    10.2105     0.0000     0.0000 </r>
       <r>    10.3093     0.0000     0.0000 </r>
       <r>    10.4081     0.0000     0.0000 </r>
       <r>    10.5068     0.0000     0.0000 </r>
       <r>    10.6056     0.0000     0.0000 </r>
       <r>    10.7044     0.0000     0.0000 </r>
       <r>    10.8031     0.0000     0.0000 </r>
       <r>    10.9019     0.0000     0.0000 </r>
       <r>    11.0007     0.0000     0.0000 </r>
       <r>    11.0994     0.0000     0.0000 </r>
       <r>    11.1982     0.0000     0.0000 </r>
       <r>    11.2970     0.0000     0.0000 </r>
       <r>    11.3957     0.0000     0.0000 </r>
       <r>    11.4945     0.0000     0.0000 </r>
       <r>    11.5933     0.0000     0.0000 </r>
       <r>    11.6921     0.0000     0.0000 </r>
       <r>    11.7908     0.0000     0.0000 </r>
       <r>    11.8896     0.0000     0.0000 </r>
       <r>    11.9884     0.0000     0.0000 </r>
       <r>    12.0871     0.0000     0.0000 </r>
       <r>    12.1859     0.0000     0.0000 </r>
       <r>    12.2847     0.0000     0.0000 </r>
       <r>    12.3834     0.0000     0.0000 </r>
       <r>    12.4822     0.0000     0.0000 </r>
       <r>    12.5810     0.0000     0.0000 </r>
       <r>    12.6797     0.0000     0.0000 </r>
       <r>    12.7785     0.0000     0.0000 </r>
       <r>    12.8773     0.0000     0.0000 </r>
       <r>    12.9761     0.0000     0.0000 </r>
       <r>    13.0748     0.0000     0.0000 </r>
       <r>    13.1736     0.0000     0.0000 </r>
       <r>    13.2724     0.0000     0.0000 </r>
       <r>    13.3711     0.0000     0.0000 </r>
       <r>    13.4699     0.0000     0.0000 </r>
       <r>    13.5687     0.0000     0.0000 </r>
       <r>    13.6674     0.0000     0.0000 </r>
       <r>    13.7662     0.0000     0.0000 </r>
       <r>    13.8650     0.0000     0.0000 </r>
       <r>    13.9637     0.0000     0.0000 </r>
       <r>    14.0625     0.0000     0.0000 </r>
       <r>    14.1613     0.0000     0.0000 </r>
       <r>    14.2601     0.0000     0.0000 </r>
       <r>    14.3588     0.0000     0.0000 </r>
       <r>    14.4576     0.0000     0.0000 </r>
       <r>    14.5564     0.0000     0.0000 </r>
       <r>    14.6551     0.0000     0.0000 </r>
       <r>    14.7539     0.0000     0.0000 </r>
       <r>    14.8527     0.0000     0.0000 </r>
       <r>    14.9514     0.0000     0.0000 </r>
       <r>    15.0502     0.0000     0.0000 </r>
       <r>    15.1490     0.0000     0.0000 </r>
      </set>
      <set comment="spin 4">
       <r>   -14.4817     0.0000     0.0000 </r>
       <r>   -14.3830     0.0000     0.0000 </r>
       <r>   -14.2842     0.0000     0.0000 </r>
       <r>   -14.1854     0.0000     0.0000 </r>
       <r>   -14.0867     0.0000     0.0000 </r>
       <r>   -13.9879     0.0000     0.0000 </r>
       <r>   -13.8891     0.0000     0.0000 </r>
       <r>   -13.7904     0.0000     0.0000 </r>
       <r>   -13.6916     0.0000     0.0000 </r>
       <r>   -13.5928     0.0000     0.0000 </r>
       <r>   -13.4941     0.0000     0.0000 </r>
       <r>   -13.3953     0.0000     0.0000 </r>
       <r>   -13.2965     0.0000     0.0000 </r>
       <r>   -13.1978     0.0000     0.0000 </r>
       <r>   -13.0990     0.0000     0.0000 </r>
       <r>   -13.0002     0.0000     0.0000 </r>
       <r>   -12.9014     0.0000     0.0000 </r>
       <r>   -12.8027     0.0000     0.0000 </r>
       <r>   -12.7039     0.0000     0.0000 </r>
       <r>   -12.6051     0.0000     0.0000 </r>
       <r>   -12.5064     0.0000     0.0000 </r>
       <r>   -12.4076     0.0000     0.0000 </r>
       <r>   -12.3088     0.0000     0.0000 </r>
       <r>   -12.2101     0.0000     0.0000 </r>
       <r>   -12.1113     0.0000     0.0000 </r>
       <r>   -12.0125     0.0000     0.0000 </r>
       <r>   -11.9138     0.0000     0.0000 </r>
       <r>   -11.8150     0.0000     0.0000 </r>
       <r>   -11.7162     0.0000     0.0000 </r>
       <r>   -11.6174     0.0000     0.0000 </r>
       <r>   -11.5187     0.0000     0.0000 </r>
       <r>   -11.4199     0.0000     0.0000 </r>
       <r>   -11.3211     0.0000     0.0000 </r>
       <r>   -11.2224     0.0000     0.0000 </r>
       <r>   -11.1236     0.0000     0.0000 </r>
       <r>   -11.0248     0.0000     0.0000 </r>
       <r>   -10.9261     0.0000     0.0000 </r>
       <r>   -10.8273     0.0000     0.0000 </r>
       <r>   -10.7285     0.0000     0.0000 </r>
       <r>   -10.6298     0.0000     0.0000 </r>
       <r>   -10.5310     0.0000     0.0000 </r>
       <r>   -10.4322     0.0000     0.0000 </r>
       <r>   -10.3334     0.0000     0.0000 </r>
       <r>   -10.2347     0.0000     0.0000 </r>
       <r>   -10.1359     0.0000     0.0000 </r>
       <r>   -10.0371     0.0000     0.0000 </r>
       <r>    -9.9384     0.0000     0.0000 </r>
       <r>    -9.8396     0.0000     0.0000 </r>
       <r>    -9.7408     0.0000     0.0000 </r>
       <r>    -9.6421     0.0000     0.0000 </r>
       <r>    -9.5433     0.0000     0.0000 </r>
       <r>    -9.4445     0.0000     0.0000 </r>
       <r>    -9.3458     0.0000     0.0000 </r>
       <r>    -9.2470     0.0000     0.0000 </r>
       <r>    -9.1482     0.0000     0.0000 </r>
       <r>    -9.0494     0.0000     0.0000 </r>
       <r>    -8.9507     0.0000     0.0000 </r>
       <r>    -8.8519     0.0000     0.0000 </r>
       <r>    -8.7531     0.0000     0.0000 </r>
       <r>    -8.6544     0.0000     0.0000 </r>
       <r>    -8.5556     0.0000     0.0000 </r>
       <r>    -8.4568     0.0000     0.0000 </r>
       <r>    -8.3581     0.0000     0.0000 </r>
       <r>    -8.2593     0.0000     0.0000 </r>
       <r>    -8.1605     0.0000     0.0000 </r>
       <r>    -8.0618     0.0000     0.0000 </r>
       <r>    -7.9630     0.0000     0.0000 </r>
       <r>    -7.8642     0.0000     0.0000 </r>
       <r>    -7.7655     0.0000     0.0000 </r>
       <r>    -7.6667     0.0000     0.0000 </r>
       <r>    -7.5679     0.0000     0.0000 </r>
       <r>    -7.4691     0.0000     0.0000 </r>
       <r>    -7.3704     0.0000     0.0000 </r>
       <r>    -7.2716     0.0000     0.0000 </r>
       <r>    -7.1728     0.0000     0.0000 </r>
       <r>    -7.0741     0.0000     0.0000 </r>
       <r>    -6.9753     0.0000     0.0000 </r>
       <r>    -6.8765     0.0000     0.0000 </r>
       <r>    -6.7778     0.0000     0.0000 </r>
       <r>    -6.6790     0.0000     0.0000 </r>
       <r>    -6.5802     0.0000     0.0000 </r>
       <r>    -6.4815     0.0000     0.0000 </r>
       <r>    -6.3827     0.0000     0.0000 </r>
       <r>    -6.2839     0.0000     0.0000 </r>
       <r>    -6.1851     0.0000     0.0000 </r>
       <r>    -6.0864     0.0000     0.0000 </r>
       <r>    -5.9876     0.0000     0.0000 </r>
       <r>    -5.8888     0.0000     0.0000 </r>
       <r>    -5.7901     0.0000     0.0000 </r>
       <r>    -5.6913     0.0000     0.0000 </r>
       <r>    -5.5925     0.0000     0.0000 </r>
       <r>    -5.4938     0.0000     0.0000 </r>
       <r>    -5.3950     0.0000     0.0000 </r>
       <r>    -5.2962     0.0000     0.0000 </r>
       <r>    -5.1975     0.0000     0.0000 </r>
       <r>    -5.0987     0.0000     0.0000 </r>
       <r>    -4.9999     0.0000     0.0000 </r>
       <r>    -4.9011     0.0000     0.0000 </r>
       <r>    -4.8024     0.0000     0.0000 </r>
       <r>    -4.7036     0.0000     0.0000 </r>
       <r>    -4.6048     0.0000     0.0000 </r>
       <r>    -4.5061     0.0000     0.0000 </r>
       <r>    -4.4073     0.0000     0.0000 </r>
       <r>    -4.3085     0.0000     0.0000 </r>
       <r>    -4.2098     0.0000     0.0000 </r>
       <r>    -4.1110     0.0000     0.0000 </r>
       <r>    -4.0122     0.0000     0.0000 </r>
       <r>    -3.9135     0.0000     0.0000 </r>
       <r>    -3.8147     0.0000     0.0000 </r>
       <r>    -3.7159     0.0000     0.0000 </r>
       <r>    -3.6172     0.0000     0.0000 </r>
       <r>    -3.5184     0.0000     0.0000 </r>
       <r>    -3.4196     0.0000     0.0000 </r>
       <r>    -3.3208     0.0000     0.0000 </r>
       <r>    -3.2221     0.0000     0.0000 </r>
       <r>    -3.1233     0.0000     0.0000 </r>
       <r>    -3.0245     0.0000     0.0000 </r>
       <r>    -2.9258     0.0000     0.0000 </r>
       <r>    -2.8270     0.0000     0.0000 </r>
       <r>    -2.7282     0.0000     0.0000 </r>
       <r>    -2.6295     0.0000     0.0000 </r>
       <r>    -2.5307     0.0000     0.0000 </r>
       <r>    -2.4319     0.0000     0.0000 </r>
       <r>    -2.3332     0.0000     0.0000 </r>
       <r>    -2.2344     0.0000     0.0000 </r>
       <r>    -2.1356     0.0000     0.0000 </r>
       <r>    -2.0368     0.0000     0.0000 </r>
       <r>    -1.9381     0.0000     0.0000 </r>
       <r>    -1.8393     0.0000     0.0000 </r>
       <r>    -1.7405     0.0000     0.0000 </r>
       <r>    -1.6418     0.0000     0.0000 </r>
       <r>    -1.5430     0.0000     0.0000 </r>
       <r>    -1.4442     0.0000     0.0000 </r>
       <r>    -1.3455     0.0000     0.0000 </r>
       <r>    -1.2467     0.0000     0.0000 </r>
       <r>    -1.1479     0.0000     0.0000 </r>
       <r>    -1.0492     0.0000     0.0000 </r>
       <r>    -0.9504     0.0000     0.0000 </r>
       <r>    -0.8516     0.0000     0.0000 </r>
       <r>    -0.7528     0.0000     0.0000 </r>
       <r>    -0.6541     0.0000     0.0000 </r>
       <r>    -0.5553     0.0000     0.0000 </r>
       <r>    -0.4565     0.0000     0.0000 </r>
       <r>    -0.3578     0.0000     0.0000 </r>
       <r>    -0.2590     0.0000     0.0000 </r>
       <r>    -0.1602     0.0000     0.0000 </r>
       <r>    -0.0615     0.0000     0.0000 </r>
       <r>     0.0373     0.0000     0.0000 </r>
       <r>     0.1361     0.0000     0.0000 </r>
       <r>     0.2348     0.0000     0.0000 </r>
       <r>     0.3336     0.0000     0.0000 </r>
       <r>     0.4324     0.0000     0.0000 </r>
       <r>     0.5312     0.0000     0.0000 </r>
       <r>     0.6299     0.0000     0.0000 </r>
       <r>     0.7287     0.0000     0.0000 </r>
       <r>     0.8275     0.0000     0.0000 </r>
       <r>     0.9262     0.0000     0.0000 </r>
       <r>     1.0250     0.0000     0.0000 </r>
       <r>     1.1238     0.0000     0.0000 </r>
       <r>     1.2225     0.0000     0.0000 </r>
       <r>     1.3213     0.0000     0.0000 </r>
       <r>     1.4201     0.0000     0.0000 </r>
       <r>     1.5188     0.0000     0.0000 </r>
       <r>     1.6176     0.0000     0.0000 </r>
       <r>     1.7164     0.0000     0.0000 </r>
       <r>     1.8151     0.0000     0.0000 </r>
       <r>     1.9139     0.0000     0.0000 </r>
       <r>     2.0127     0.0000     0.0000 </r>
       <r>     2.1115     0.0000     0.0000 </r>
       <r>     2.2102     0.0000     0.0000 </r>
       <r>     2.3090     0.0000     0.0000 </r>
       <r>     2.4078     0.0000     0.0000 </r>
       <r>     2.5065     0.0000     0.0000 </r>
       <r>     2.6053     0.0000     0.0000 </r>
       <r>     2.7041     0.0000     0.0000 </r>
       <r>     2.8028     0.0000     0.0000 </r>
       <r>     2.9016     0.0000     0.0000 </r>
       <r>     3.0004     0.0000     0.0000 </r>
       <r>     3.0991     0.0000     0.0000 </r>
       <r>     3.1979     0.0000     0.0000 </r>
       <r>     3.2967     0.0000     0.0000 </r>
       <r>     3.3955     0.0000     0.0000 </r>
       <r>     3.4942     0.0000     0.0000 </r>
       <r>     3.5930     0.0000     0.0000 </r>
       <r>     3.6918     0.0000     0.0000 </r>
       <r>     3.7905     0.0000     0.0000 </r>
       <r>     3.8893     0.0000     0.0000 </r>
       <r>     3.9881     0.0000     0.0000 </r>
       <r>     4.0868     0.0000     0.0000 </r>
       <r>     4.1856     0.0000     0.0000 </r>
       <r>     4.2844     0.0000     0.0000 </r>
       <r>     4.3831     0.0000     0.0000 </r>
       <r>     4.4819     0.0000     0.0000 </r>
       <r>     4.5807     0.0000     0.0000 </r>
       <r>     4.6795     0.0000     0.0000 </r>
       <r>     4.7782     0.0000     0.0000 </r>
       <r>     4.8770     0.0000     0.0000 </r>
       <r>     4.9758     0.0000     0.0000 </r>
       <r>     5.0745     0.0000     0.0000 </r>
       <r>     5.1733     0.0000     0.0000 </r>
       <r>     5.2721     0.0000     0.0000 </r>
       <r>     5.3708     0.0000     0.0000 </r>
       <r>     5.4696     0.0000     0.0000 </r>
       <r>     5.5684     0.0000     0.0000 </r>
       <r>     5.6671     0.0000     0.0000 </r>
       <r>     5.7659     0.0000     0.0000 </r>
       <r>     5.8647     0.0000     0.0000 </r>
       <r>     5.9635     0.0000     0.0000 </r>
       <r>     6.0622     0.0000     0.0000 </r>
       <r>     6.1610     0.0000     0.0000 </r>
       <r>     6.2598     0.0000     0.0000 </r>
       <r>     6.3585     0.0000     0.0000 </r>
       <r>     6.4573     0.0000     0.0000 </r>
       <r>     6.5561     0.0000     0.0000 </r>
       <r>     6.6548     0.0000     0.0000 </r>
       <r>     6.7536     0.0000     0.0000 </r>
       <r>     6.8524     0.0000     0.0000 </r>
       <r>     6.9511     0.0000     0.0000 </r>
       <r>     7.0499     0.0000     0.0000 </r>
       <r>     7.1487     0.0000     0.0000 </r>
       <r>     7.2474     0.0000     0.0000 </r>
       <r>     7.3462     0.0000     0.0000 </r>
       <r>     7.4450     0.0000     0.0000 </r>
       <r>     7.5438     0.0000     0.0000 </r>
       <r>     7.6425     0.0000     0.0000 </r>
       <r>     7.7413     0.0000     0.0000 </r>
       <r>     7.8401     0.0000     0.0000 </r>
       <r>     7.9388     0.0000     0.0000 </r>
       <r>     8.0376     0.0000     0.0000 </r>
       <r>     8.1364     0.0000     0.0000 </r>
       <r>     8.2351     0.0000     0.0000 </r>
       <r>     8.3339     0.0000     0.0000 </r>
       <r>     8.4327     0.0000     0.0000 </r>
       <r>     8.5314     0.0000     0.0000 </r>
       <r>     8.6302     0.0000     0.0000 </r>
       <r>     8.7290     0.0000     0.0000 </r>
       <r>     8.8278     0.0000     0.0000 </r>
       <r>     8.9265     0.0000     0.0000 </r>
       <r>     9.0253     0.0000     0.0000 </r>
       <r>     9.1241     0.0000     0.0000 </r>
       <r>     9.2228     0.0000     0.0000 </r>
       <r>     9.3216     0.0000     0.0000 </r>
       <r>     9.4204     0.0000     0.0000 </r>
       <r>     9.5191     0.0000     0.0000 </r>
       <r>     9.6179     0.0000     0.0000 </r>
       <r>     9.7167     0.0000     0.0000 </r>
       <r>     9.8154     0.0000     0.0000 </r>
       <r>     9.9142     0.0000     0.0000 </r>
       <r>    10.0130     0.0000     0.0000 </r>
       <r>    10.1118     0.0000     0.0000 </r>
       <r>    10.2105     0.0000     0.0000 </r>
       <r>    10.3093     0.0000     0.0000 </r>
       <r>    10.4081     0.0000     0.0000 </r>
       <r>    10.5068     0.0000     0.0000 </r>
       <r>    10.6056     0.0000     0.0000 </r>
       <r>    10.7044     0.0000     0.0000 </r>
       <r>    10.8031     0.0000     0.0000 </r>
       <r>    10.9019     0.0000     0.0000 </r>
       <r>    11.0007     0.0000     0.0000 </r>
       <r>    11.0994     0.0000     0.0000 </r>
       <r>    11.1982     0.0000     0.0000 </r>
       <r>    11.2970     0.0000     0.0000 </r>
       <r>    11.3957     0.0000     0.0000 </r>
       <r>    11.4945     0.0000     0.0000 </r>
       <r>    11.5933     0.0000     0.0000 </r>
       <r>    11.6921     0.0000     0.0000 </r>
       <r>    11.7908     0.0000     0.0000 </r>
       <r>    11.8896     0.0000     0.0000 </r>
       <r>    11.9884     0.0000     0.0000 </r>
       <r>    12.0871     0.0000     0.0000 </r>
       <r>    12.1859     0.0000     0.0000 </r>
       <r>    12.2847     0.0000     0.0000 </r>
       <r>    12.3834     0.0000     0.0000 </r>
       <r>    12.4822     0.0000     0.0000 </r>
       <r>    12.5810     0.0000     0.0000 </r>
       <r>    12.6797     0.0000     0.0000 </r>
       <r>    12.7785     0.0000     0.0000 </r>
       <r>    12.8773     0.0000     0.0000 </r>
       <r>    12.9761     0.0000     0.0000 </r>
       <r>    13.0748     0.0000     0.0000 </r>
       <r>    13.1736     0.0000     0.0000 </r>
       <r>    13.2724     0.0000     0.0000 </r>
       <r>    13.3711     0.0000     0.0000 </r>
       <r>    13.4699     0.0000     0.0000 </r>
       <r>    13.5687     0.0000     0.0000 </r>
       <r>    13.6674     0.0000     0.0000 </r>
       <r>    13.7662     0.0000     0.0000 </r>
       <r>    13.8650     0.0000     0.0000 </r>
       <r>    13.9637     0.0000     0.0000 </r>
       <r>    14.0625     0.0000     0.0000 </r>
       <r>    14.1613     0.0000     0.0000 </r>
       <r>    14.2601     0.0000     0.0000 </r>
       <r>    14.3588     0.0000     0.0000 </r>
       <r>    14.4576     0.0000     0.0000 </r>
       <r>    14.5564     0.0000     0.0000 </r>
       <r>    14.6551     0.0000     0.0000 </r>
       <r>    14.7539     0.0000     0.0000 </r>
       <r>    14.8527     0.0000     0.0000 </r>
       <r>    14.9514     0.0000     0.0000 </r>
       <r>    15.0502     0.0000     0.0000 </r>
       <r>    15.1490     0.0000     0.0000 </r>
      </set>
     </set>
    </array>
   </total>
  </dos>
 </calculation>
 <structure name="finalpos" >
  <crystal>
   <varray name="basis" >
    <v>       0.00000000       3.29088061       3.29088061 </v>
    <v>       3.29088061       0.00000000       3.29088061 </v>
    <v>       3.29088061       3.29088061       0.00000000 </v>
   </varray>
   <i name="volume">     71.27978417 </i>
   <varray name="rec_basis" >
    <v>      -0.15193502       0.15193502       0.15193502 </v>
    <v>       0.15193502      -0.15193502       0.15193502 </v>
    <v>       0.15193502       0.15193502      -0.15193502 </v>
   </varray>
  </crystal>
  <varray name="positions" >
   <v>       0.00000000       0.00000000       0.00000000 </v>
   <v>       0.50000000       0.50000000       0.50000000 </v>
  </varray>
 </structure>
</modeling>
